/*--------------------------------*- C++ -*----------------------------------*\
| =========                 |                                                 |
| \\      /  F ield         | OpenFOAM: The Open Source CFD Toolbox           |
|  \\    /   O peration     | Version:  v2012                                 |
|   \\  /    A nd           | Website:  www.openfoam.com                      |
|    \\/     M anipulation  |                                                 |
\*---------------------------------------------------------------------------*/
FoamFile
{
    version     2.0;
    format      ascii;
    class       surfaceScalarField;
    location    "0.5";
    object      phi;
}
// * * * * * * * * * * * * * * * * * * * * * * * * * * * * * * * * * * * * * //

dimensions      [0 3 -1 0 0 0 0];
oriented        oriented;


internalField   nonuniform List<scalar> 
760
(
3.75282e-05
1.24718e-05
2.64817e-05
1.10465e-05
1.94611e-05
7.02059e-06
1.5052e-05
4.40911e-06
1.22071e-05
2.84492e-06
1.02983e-05
1.90881e-06
8.95596e-06
1.34232e-06
7.96765e-06
9.88307e-07
7.21146e-06
7.56187e-07
6.61567e-06
5.9579e-07
6.13634e-06
4.79334e-07
5.74536e-06
3.90976e-07
5.42403e-06
3.21335e-07
5.1593e-06
2.64729e-07
4.94142e-06
2.17875e-07
4.76208e-06
1.79345e-07
4.61241e-06
1.49672e-07
4.47977e-06
1.3263e-07
4.34563e-06
1.34147e-07
1.42865e-07
5.14136e-05
1.10582e-05
4.73035e-05
1.51567e-05
4.13981e-05
1.2926e-05
3.58425e-05
9.96469e-06
3.12061e-05
7.48136e-06
2.74993e-05
5.61558e-06
2.45642e-05
4.27743e-06
2.2227e-05
3.32549e-06
2.03449e-05
2.63836e-06
1.88106e-05
2.13009e-06
1.75465e-05
1.74344e-06
1.64967e-05
1.44071e-06
1.5621e-05
1.19708e-06
1.48894e-05
9.96279e-07
1.42791e-05
8.28217e-07
1.37706e-05
6.87799e-07
1.33456e-05
5.74754e-07
1.2984e-05
4.94189e-07
1.26652e-05
4.52964e-07
4.42298e-07
5.28832e-05
8.17493e-06
5.34093e-05
1.46306e-05
5.11704e-05
1.51648e-05
4.76191e-05
1.35161e-05
4.37569e-05
1.13435e-05
4.00863e-05
9.2862e-06
3.68085e-05
7.55525e-06
3.39662e-05
6.16771e-06
3.15327e-05
5.07187e-06
2.94581e-05
4.2047e-06
2.76907e-05
3.51084e-06
2.61847e-05
2.94669e-06
2.49022e-05
2.47958e-06
2.38124e-05
2.08608e-06
2.28902e-05
1.75049e-06
2.21139e-05
1.46409e-06
2.14636e-05
1.22505e-06
2.09191e-05
1.03863e-06
2.04583e-05
9.13828e-07
8.51328e-07
5.23444e-05
5.8305e-06
5.44238e-05
1.25512e-05
5.46423e-05
1.49464e-05
5.32949e-05
1.48635e-05
5.10139e-05
1.36246e-05
4.83173e-05
1.19828e-05
4.55465e-05
1.0326e-05
4.28934e-05
8.82081e-06
4.04493e-05
7.516e-06
3.8247e-05
6.40695e-06
3.62891e-05
5.46876e-06
3.45639e-05
4.67185e-06
3.30547e-05
3.98879e-06
3.17438e-05
3.39704e-06
3.06142e-05
2.88004e-06
2.96503e-05
2.428e-06
2.88366e-05
2.03872e-06
2.81566e-05
1.71866e-06
2.75883e-05
1.4821e-06
1.34677e-06
5.16292e-05
4.20128e-06
5.38894e-05
1.0291e-05
5.52766e-05
1.35592e-05
5.54686e-05
1.46715e-05
5.4652e-05
1.44412e-05
5.31458e-05
1.34889e-05
5.12482e-05
1.22236e-05
4.91842e-05
1.08848e-05
4.71043e-05
9.59598e-06
4.51002e-05
8.41099e-06
4.32239e-05
7.34504e-06
4.15017e-05
6.39409e-06
3.99445e-05
5.54597e-06
3.85548e-05
4.78675e-06
3.73303e-05
4.10452e-06
3.62663e-05
3.49204e-06
3.53557e-05
2.94926e-06
3.45884e-05
2.48596e-06
3.39458e-05
2.12473e-06
1.90571e-06
5.1086e-05
3.11527e-06
5.30525e-05
8.32449e-06
5.48091e-05
1.18026e-05
5.58485e-05
1.36322e-05
5.60746e-05
1.4215e-05
5.55972e-05
1.39663e-05
5.45983e-05
1.32226e-05
5.32595e-05
1.22237e-05
5.17311e-05
1.11244e-05
5.0126e-05
1.00161e-05
4.85238e-05
8.94726e-06
4.69779e-05
7.9399e-06
4.55234e-05
7.00051e-06
4.41822e-05
6.12797e-06
4.29678e-05
5.31888e-06
4.18881e-05
4.57178e-06
4.09461e-05
3.89121e-06
4.01396e-05
3.29248e-06
3.94557e-05
2.8086e-06
2.50456e-06
5.07292e-05
2.38611e-06
5.23084e-05
6.74527e-06
5.40316e-05
1.00793e-05
5.54228e-05
1.22409e-05
5.62661e-05
1.33717e-05
5.6528e-05
1.37044e-05
5.6277e-05
1.34736e-05
5.56233e-05
1.28773e-05
5.46825e-05
1.20651e-05
5.35576e-05
1.1141e-05
5.23327e-05
1.01722e-05
5.1073e-05
9.19959e-06
4.98276e-05
8.24598e-06
4.86324e-05
7.32315e-06
4.75138e-05
6.43746e-06
4.64907e-05
5.59489e-06
4.55757e-05
4.80622e-06
4.47744e-05
4.09374e-06
4.40812e-05
3.50187e-06
3.12019e-06
5.05032e-05
1.88287e-06
5.17341e-05
5.51442e-06
5.32606e-05
8.55285e-06
5.47096e-05
1.0792e-05
5.58464e-05
1.22349e-05
5.65653e-05
1.29854e-05
5.68543e-05
1.31846e-05
5.67569e-05
1.29748e-05
5.63429e-05
1.24791e-05
5.56889e-05
1.1795e-05
5.48671e-05
1.0994e-05
5.39407e-05
1.0126e-05
5.29623e-05
9.22439e-06
5.19744e-05
8.31102e-06
5.1011e-05
7.40092e-06
5.00984e-05
6.50746e-06
4.92565e-05
5.64812e-06
4.84977e-05
4.85256e-06
4.78232e-05
4.17636e-06
3.73138e-06
5.03585e-05
1.52436e-06
5.13101e-05
4.56284e-06
5.25982e-05
7.26476e-06
5.3955e-05
9.43512e-06
5.51742e-05
1.10158e-05
5.61279e-05
1.20316e-05
5.67591e-05
1.25535e-05
5.70629e-05
1.2671e-05
5.70678e-05
1.24742e-05
5.68199e-05
1.20429e-05
5.63718e-05
1.14421e-05
5.57755e-05
1.07223e-05
5.50789e-05
9.92096e-06
5.43242e-05
9.06572e-06
5.35473e-05
8.17781e-06
5.27781e-05
7.27664e-06
5.20405e-05
6.38573e-06
5.13514e-05
5.54162e-06
5.07181e-05
4.8097e-06
4.32013e-06
5.02629e-05
1.26149e-06
5.09998e-05
3.82591e-06
5.20608e-05
6.20374e-06
5.32627e-05
8.23319e-06
5.44416e-05
9.83687e-06
5.54756e-05
1.09977e-05
5.62896e-05
1.17395e-05
5.68499e-05
1.21106e-05
5.71547e-05
1.21695e-05
5.72231e-05
1.19744e-05
5.70869e-05
1.15783e-05
5.67833e-05
1.10259e-05
5.63506e-05
1.03537e-05
5.58255e-05
9.59072e-06
5.52418e-05
8.76158e-06
5.46287e-05
7.8897e-06
5.40112e-05
7.00326e-06
5.34084e-05
6.14442e-06
5.28317e-05
5.38636e-06
4.8726e-06
5.01973e-05
1.06414e-06
5.07714e-05
3.25188e-06
5.16352e-05
5.33993e-06
5.26667e-05
7.20165e-06
5.3743e-05
8.76065e-06
5.47597e-05
9.9809e-06
5.56409e-05
1.08584e-05
5.63396e-05
1.14119e-05
5.68349e-05
1.16741e-05
5.71263e-05
1.1683e-05
5.72274e-05
1.14773e-05
5.71605e-05
1.10928e-05
5.69528e-05
1.05613e-05
5.66332e-05
9.91035e-06
5.62298e-05
9.16498e-06
5.57689e-05
8.35061e-06
5.52737e-05
7.49846e-06
5.47635e-05
6.65466e-06
5.4252e-05
5.89779e-06
5.37937e-06
5.0151e-05
9.13179e-07
5.06014e-05
2.80147e-06
5.13012e-05
4.64012e-06
5.217e-05
6.33283e-06
5.31184e-05
7.81228e-06
5.40626e-05
9.03666e-06
5.4934e-05
9.98697e-06
5.56829e-05
1.0663e-05
5.62791e-05
1.1078e-05
5.6709e-05
1.1253e-05
5.6973e-05
1.12133e-05
5.7081e-05
1.09848e-05
5.70495e-05
1.05928e-05
5.68988e-05
1.00611e-05
5.66503e-05
9.41343e-06
5.63256e-05
8.67536e-06
5.59445e-05
7.87953e-06
5.55247e-05
7.07443e-06
5.5081e-05
6.34153e-06
5.83529e-06
5.01173e-05
7.95905e-07
5.04736e-05
2.44517e-06
5.10401e-05
4.07357e-06
5.17639e-05
5.60909e-06
5.25806e-05
6.99557e-06
5.34254e-05
8.1919e-06
5.42401e-05
9.17219e-06
5.49784e-05
9.92474e-06
5.56071e-05
1.04493e-05
5.61061e-05
1.0754e-05
5.6467e-05
1.08524e-05
5.66907e-05
1.07611e-05
5.67848e-05
1.04986e-05
5.67618e-05
1.00842e-05
5.66364e-05
9.53875e-06
5.64249e-05
8.88693e-06
5.61429e-05
8.1615e-06
5.58056e-05
7.41176e-06
5.54272e-05
6.71988e-06
6.23877e-06
5.00925e-05
7.03382e-07
5.03773e-05
2.16037e-06
5.08374e-05
3.61348e-06
5.14369e-05
5.00956e-06
5.21297e-05
6.30286e-06
5.2866e-05
7.45556e-06
5.35988e-05
8.43935e-06
5.42876e-05
9.23597e-06
5.49006e-05
9.83634e-06
5.54156e-05
1.0239e-05
5.58196e-05
1.04484e-05
5.61075e-05
1.04732e-05
5.62806e-05
1.03255e-05
5.63449e-05
1.00198e-05
5.63097e-05
9.57405e-06
5.61856e-05
9.01098e-06
5.59844e-05
8.36267e-06
5.57181e-05
7.67807e-06
5.53998e-05
7.03819e-06
6.59094e-06
5.00746e-05
6.28797e-07
5.03059e-05
1.92909e-06
5.06825e-05
3.23681e-06
5.11789e-05
4.5132e-06
5.17608e-05
5.72094e-06
5.23906e-05
6.82581e-06
5.30308e-05
7.79907e-06
5.36479e-05
8.61888e-06
5.42138e-05
9.27048e-06
5.47071e-05
9.74571e-06
5.51133e-05
1.00422e-05
5.54242e-05
1.01623e-05
5.5637e-05
1.01127e-05
5.57533e-05
9.90359e-06
5.57775e-05
9.54983e-06
5.57162e-05
9.07224e-06
5.55773e-05
8.50163e-06
5.53695e-05
7.88581e-06
5.51044e-05
7.30334e-06
6.89467e-06
5.00624e-05
5.66358e-07
5.02554e-05
1.73609e-06
5.05688e-05
2.92345e-06
5.09819e-05
4.1001e-06
5.14685e-05
5.23438e-06
5.19996e-05
6.29467e-06
5.25463e-05
7.25234e-06
5.30818e-05
8.08345e-06
5.35826e-05
8.76967e-06
5.403e-05
9.29831e-06
5.44101e-05
9.66208e-06
5.47137e-05
9.85867e-06
5.4936e-05
9.89034e-06
5.50757e-05
9.76396e-06
5.51339e-05
9.49156e-06
5.51141e-05
9.09211e-06
5.50207e-05
8.59505e-06
5.48598e-05
8.04666e-06
5.46408e-05
7.52234e-06
7.15385e-06
5.00561e-05
5.10289e-07
5.02247e-05
1.56743e-06
5.04926e-05
2.6556e-06
5.08407e-05
3.75203e-06
5.12477e-05
4.82732e-06
5.16916e-05
5.85083e-06
5.21502e-05
6.79369e-06
5.2603e-05
7.63067e-06
5.30316e-05
8.34111e-06
5.34205e-05
8.90934e-06
5.37579e-05
9.32474e-06
5.40349e-05
9.58161e-06
5.42462e-05
9.67911e-06
5.43888e-05
9.62136e-06
5.4462e-05
9.41827e-06
5.4467e-05
9.08718e-06
5.44057e-05
8.65629e-06
5.42821e-05
8.17031e-06
5.41029e-05
7.70147e-06
7.37264e-06
5.00573e-05
4.53013e-07
5.02148e-05
1.40993e-06
5.04525e-05
2.41791e-06
5.07514e-05
3.45305e-06
5.10943e-05
4.48447e-06
5.14642e-05
5.48089e-06
5.1845e-05
6.41287e-06
5.22215e-05
7.25419e-06
5.25799e-05
7.98274e-06
5.29083e-05
8.58096e-06
5.3197e-05
9.03605e-06
5.34385e-05
9.34005e-06
5.36277e-05
9.48992e-06
5.37612e-05
9.48785e-06
5.38374e-05
9.3421e-06
5.38558e-05
9.06875e-06
5.38172e-05
8.69493e-06
5.37236e-05
8.26391e-06
5.35793e-05
7.84575e-06
7.55478e-06
5.00693e-05
3.83669e-07
5.02265e-05
1.2528e-06
5.04455e-05
2.19889e-06
5.07088e-05
3.18971e-06
5.10027e-05
4.1906e-06
5.13148e-05
5.16882e-06
5.16334e-05
6.09428e-06
5.19474e-05
6.94011e-06
5.22469e-05
7.6833e-06
5.25227e-05
8.3051e-06
5.27675e-05
8.79133e-06
5.2975e-05
9.13257e-06
5.31406e-05
9.32429e-06
5.32611e-05
9.3673e-06
5.33346e-05
9.26861e-06
5.33601e-05
9.04329e-06
5.33375e-05
8.7175e-06
5.32688e-05
8.33265e-06
5.31578e-05
7.95671e-06
7.70667e-06
5.00844e-05
5.02476e-05
5.04564e-05
5.06983e-05
5.09628e-05
5.12403e-05
5.15216e-05
5.1798e-05
5.20615e-05
5.2305e-05
5.25221e-05
5.27077e-05
5.28578e-05
5.29691e-05
5.30397e-05
5.30688e-05
5.30566e-05
5.30042e-05
5.29136e-05
)
;

boundaryField
{
    movingWall
    {
        type            calculated;
        value           nonuniform List<scalar> 
20
(
2.99288e-07
1.08954e-06
1.99016e-06
2.94783e-06
3.92606e-06
4.89132e-06
5.81299e-06
6.6637e-06
7.41977e-06
8.06165e-06
8.5742e-06
8.94694e-06
9.17428e-06
9.25596e-06
9.19797e-06
9.01427e-06
8.72965e-06
8.38509e-06
8.04727e-06
7.82407e-06
)
;
    }
    bottomWall
    {
        type            calculated;
        value           uniform 0;
    }
    leftSide
    {
        type            calculated;
        value           nonuniform List<scalar> 
20
(
-5e-05
-5e-05
-5e-05
-5e-05
-5e-05
-5e-05
-5e-05
-5e-05
-5e-05
-5e-05
-5e-05
-5e-05
-5e-05
-5e-05
-5e-05
-5e-05
-5e-05
-5e-05
-5e-05
-5e-05
)
;
    }
    rightSide
    {
        type            calculated;
        value           nonuniform List<scalar> 
20
(
4.20276e-06
1.23657e-05
2.00492e-05
2.70929e-05
3.33869e-05
3.88569e-05
4.34655e-05
4.7212e-05
5.01293e-05
5.22793e-05
5.37452e-05
5.46251e-05
5.50237e-05
5.50477e-05
5.48006e-05
5.43816e-05
5.38842e-05
5.33972e-05
5.30059e-05
5.27962e-05
)
;
    }
    frontAndBack
    {
        type            empty;
        value           nonuniform List<scalar> 0();
    }
}


// ************************************************************************* //
