/*--------------------------------*- C++ -*----------------------------------*\
| =========                 |                                                 |
| \\      /  F ield         | OpenFOAM: The Open Source CFD Toolbox           |
|  \\    /   O peration     | Version:  v2012                                 |
|   \\  /    A nd           | Website:  www.openfoam.com                      |
|    \\/     M anipulation  |                                                 |
\*---------------------------------------------------------------------------*/
FoamFile
{
    version     2.0;
    format      ascii;
    class       volVectorField;
    location    "0.5";
    object      U;
}
// * * * * * * * * * * * * * * * * * * * * * * * * * * * * * * * * * * * * * //

dimensions      [0 1 -1 0 0 0 0];


internalField   nonuniform List<vector> 
400
(
(0.725865 0.132329 0)
(0.621606 0.125312 0)
(0.461197 0.076894 0)
(0.340569 0.0440989 0)
(0.268218 0.025672 0)
(0.222375 0.0155941 0)
(0.190849 0.0100592 0)
(0.168081 0.00692172 0)
(0.150975 0.00504079 0)
(0.137676 0.00383443 0)
(0.127069 0.0030071 0)
(0.118463 0.00240453 0)
(0.111408 0.00194261 0)
(0.105597 0.00157405 0)
(0.10081 0.00127363 0)
(0.0968751 0.00103278 0)
(0.09364 0.000862286 0)
(0.0908647 0.000806207 0)
(0.0880311 0.000921775 0)
(0.0852768 0.00110005 0)
(0.994946 0.25173 0)
(0.998021 0.288321 0)
(0.894458 0.215242 0)
(0.770595 0.148674 0)
(0.666361 0.102147 0)
(0.583441 0.0714761 0)
(0.517741 0.0516014 0)
(0.465625 0.0385687 0)
(0.423934 0.0297466 0)
(0.390157 0.0235322 0)
(0.362459 0.0189726 0)
(0.339531 0.0154958 0)
(0.320432 0.0127505 0)
(0.304477 0.0105196 0)
(0.291152 0.00867472 0)
(0.28005 0.00715666 0)
(0.27083 0.00597498 0)
(0.263059 0.00522626 0)
(0.255897 0.00503256 0)
(0.249818 0.00516544 0)
(1.02785 0.202011 0)
(1.07524 0.311722 0)
(1.05521 0.293874 0)
(0.991494 0.24413 0)
(0.913875 0.193565 0)
(0.837064 0.151202 0)
(0.767059 0.118453 0)
(0.705808 0.0938695 0)
(0.653212 0.0754379 0)
(0.608355 0.0614395 0)
(0.570152 0.0505952 0)
(0.537607 0.0419986 0)
(0.509878 0.035021 0)
(0.486284 0.029236 0)
(0.466268 0.0243703 0)
(0.449379 0.020279 0)
(0.435245 0.0169387 0)
(0.423407 0.0144513 0)
(0.412898 0.0129636 0)
(0.404399 0.0123353 0)
(1.02212 0.140304 0)
(1.07373 0.275629 0)
(1.09821 0.308919 0)
(1.08522 0.29271 0)
(1.04627 0.257386 0)
(0.994437 0.21837 0)
(0.938514 0.182532 0)
(0.883616 0.152037 0)
(0.832352 0.1269 0)
(0.785803 0.106374 0)
(0.74422 0.0895658 0)
(0.707454 0.0756608 0)
(0.675189 0.0639971 0)
(0.647068 0.054072 0)
(0.622737 0.0455349 0)
(0.601874 0.0381833 0)
(0.584216 0.0319666 0)
(0.569381 0.0269925 0)
(0.556372 0.0234792 0)
(0.546055 0.021569 0)
(1.0139 0.0987323 0)
(1.05636 0.228166 0)
(1.09608 0.288313 0)
(1.11278 0.300945 0)
(1.10537 0.286843 0)
(1.08058 0.260365 0)
(1.04527 0.230106 0)
(1.00475 0.20053 0)
(0.962734 0.173572 0)
(0.92155 0.149799 0)
(0.882559 0.129119 0)
(0.846483 0.111171 0)
(0.813655 0.0955253 0)
(0.784185 0.081787 0)
(0.758056 0.0696464 0)
(0.735198 0.0589149 0)
(0.715535 0.0495566 0)
(0.698834 0.0417227 0)
(0.684153 0.0357696 0)
(0.672572 0.032255 0)
(1.00827 0.0718959 0)
(1.04002 0.184789 0)
(1.08038 0.254215 0)
(1.11032 0.28569 0)
(1.12302 0.29047 0)
(1.11972 0.278871 0)
(1.10405 0.258586 0)
(1.07986 0.234678 0)
(1.05055 0.210143 0)
(1.01875 0.186559 0)
(0.986352 0.16463 0)
(0.954656 0.14456 0)
(0.924514 0.126292 0)
(0.89647 0.109669 0)
(0.870859 0.0945227 0)
(0.84789 0.0807557 0)
(0.827713 0.0684016 0)
(0.810269 0.0577024 0)
(0.794737 0.0492077 0)
(0.782457 0.0439637 0)
(1.00498 0.0541299 0)
(1.02804 0.149206 0)
(1.06344 0.218203 0)
(1.09669 0.259547 0)
(1.11973 0.277931 0)
(1.13066 0.279553 0)
(1.13031 0.270114 0)
(1.1207 0.254109 0)
(1.10422 0.234716 0)
(1.0831 0.214002 0)
(1.05923 0.193206 0)
(1.03411 0.173001 0)
(1.00885 0.153706 0)
(0.984289 0.135437 0)
(0.961039 0.118225 0)
(0.939544 0.102111 0)
(0.920158 0.087245 0)
(0.902994 0.0739971 0)
(0.887386 0.0631422 0)
(0.874964 0.0562351 0)
(1.00313 0.0420778 0)
(1.01988 0.121293 0)
(1.04906 0.185285 0)
(1.08062 0.230152 0)
(1.1074 0.256866 0)
(1.12623 0.268501 0)
(1.13623 0.268701 0)
(1.13786 0.260873 0)
(1.13238 0.247803 0)
(1.12133 0.231573 0)
(1.10623 0.213639 0)
(1.08847 0.194957 0)
(1.06918 0.17612 0)
(1.04933 0.157484 0)
(1.02967 0.139276 0)
(1.01079 0.121691 0)
(0.993209 0.105016 0)
(0.977158 0.0897689 0)
(0.962141 0.0769565 0)
(0.950086 0.0686141 0)
(1.00206 0.0336489 0)
(1.0144 0.0997271 0)
(1.03781 0.157091 0)
(1.06564 0.201629 0)
(1.0923 0.232532 0)
(1.11449 0.250863 0)
(1.13049 0.258611 0)
(1.13978 0.258045 0)
(1.14268 0.251302 0)
(1.14 0.24018 0)
(1.13278 0.226087 0)
(1.12209 0.210063 0)
(1.10894 0.192848 0)
(1.09423 0.174958 0)
(1.07875 0.15677 0)
(1.06316 0.138622 0)
(1.04802 0.12093 0)
(1.03368 0.104362 0)
(1.01977 0.090135 0)
(1.0085 0.0807003 0)
(1.00143 0.0275616 0)
(1.01066 0.0830759 0)
(1.02924 0.133701 0)
(1.05288 0.17588 0)
(1.07746 0.20813 0)
(1.10008 0.230388 0)
(1.11883 0.243489 0)
(1.13267 0.248748 0)
(1.14127 0.247624 0)
(1.14488 0.2415 0)
(1.14403 0.231572 0)
(1.13944 0.218813 0)
(1.13189 0.203985 0)
(1.12214 0.187675 0)
(1.11089 0.170354 0)
(1.09879 0.152462 0)
(1.08641 0.134525 0)
(1.0741 0.117336 0)
(1.06163 0.102296 0)
(1.05145 0.092172 0)
(1.00103 0.0230434 0)
(1.00804 0.0701535 0)
(1.02277 0.114599 0)
(1.04243 0.15354 0)
(1.06412 0.185386 0)
(1.08551 0.209525 0)
(1.1048 0.226075 0)
(1.12077 0.235651 0)
(1.13276 0.239125 0)
(1.1406 0.23745 0)
(1.14443 0.231541 0)
(1.14465 0.222212 0)
(1.14177 0.210157 0)
(1.13635 0.195958 0)
(1.12898 0.180121 0)
(1.12022 0.163144 0)
(1.11058 0.145631 0)
(1.1004 0.128473 0)
(1.08953 0.113201 0)
(1.08065 0.102797 0)
(1.00077 0.0196172 0)
(1.00617 0.0600536 0)
(1.01786 0.0991096 0)
(1.03404 0.134603 0)
(1.05268 0.165083 0)
(1.07199 0.189728 0)
(1.09045 0.208257 0)
(1.10686 0.220814 0)
(1.12042 0.22782 0)
(1.13071 0.229852 0)
(1.13763 0.227536 0)
(1.14128 0.221491 0)
(1.14195 0.212291 0)
(1.14003 0.200458 0)
(1.13592 0.186487 0)
(1.13009 0.170895 0)
(1.12297 0.154329 0)
(1.11482 0.137742 0)
(1.10557 0.122748 0)
(1.09805 0.112434 0)
(1.00058 0.0169752 0)
(1.00481 0.0520979 0)
(1.01413 0.0865781 0)
(1.02738 0.118773 0)
(1.04312 0.147449 0)
(1.06005 0.17176 0)
(1.07691 0.191229 0)
(1.09265 0.205704 0)
(1.10645 0.215289 0)
(1.1178 0.220259 0)
(1.12642 0.220987 0)
(1.13225 0.217894 0)
(1.13537 0.211416 0)
(1.13602 0.201986 0)
(1.13445 0.190055 0)
(1.13101 0.17613 0)
(1.12602 0.160869 0)
(1.11969 0.145257 0)
(1.11196 0.130943 0)
(1.10579 0.121021 0)
(1.00045 0.0149072 0)
(1.0038 0.0457747 0)
(1.01129 0.0764265 0)
(1.02213 0.105642 0)
(1.03531 0.132411 0)
(1.04984 0.155939 0)
(1.06476 0.175672 0)
(1.07916 0.19129 0)
(1.09231 0.202682 0)
(1.10368 0.209897 0)
(1.11292 0.213103 0)
(1.11985 0.212546 0)
(1.12444 0.208526 0)
(1.12678 0.20138 0)
(1.12702 0.191497 0)
(1.12537 0.179354 0)
(1.12208 0.165601 0)
(1.11727 0.151228 0)
(1.11091 0.137872 0)
(1.10601 0.128559 0)
(1.00036 0.01326 0)
(1.00306 0.0406854 0)
(1.00917 0.068157 0)
(1.01808 0.0947795 0)
(1.02905 0.119735 0)
(1.04135 0.142305 0)
(1.05423 0.161917 0)
(1.06697 0.178157 0)
(1.07892 0.190775 0)
(1.08961 0.199663 0)
(1.09866 0.20483 0)
(1.10586 0.206379 0)
(1.1111 0.204491 0)
(1.11438 0.199411 0)
(1.11575 0.191464 0)
(1.11535 0.181087 0)
(1.11333 0.16891 0)
(1.10972 0.155903 0)
(1.10453 0.143667 0)
(1.1008 0.135095 0)
(1.0003 0.0119123 0)
(1.00256 0.0365068 0)
(1.00765 0.0613444 0)
(1.01505 0.0857758 0)
(1.02419 0.109126 0)
(1.03452 0.130745 0)
(1.04544 0.15006 0)
(1.05639 0.166607 0)
(1.06686 0.180049 0)
(1.07643 0.190167 0)
(1.08476 0.196857 0)
(1.09163 0.200111 0)
(1.09691 0.200013 0)
(1.10053 0.19673 0)
(1.1025 0.190527 0)
(1.10286 0.181802 0)
(1.10172 0.171157 0)
(1.09904 0.159533 0)
(1.09485 0.148473 0)
(1.09215 0.140699 0)
(1.00028 0.0107579 0)
(1.00229 0.0329693 0)
(1.00668 0.0556363 0)
(1.01297 0.0782765 0)
(1.02063 0.100299 0)
(1.02925 0.12109 0)
(1.03838 0.140079 0)
(1.0476 0.156772 0)
(1.0565 0.170774 0)
(1.06475 0.181796 0)
(1.07206 0.189652 0)
(1.07825 0.194255 0)
(1.08315 0.195615 0)
(1.0867 0.193838 0)
(1.08885 0.18914 0)
(1.08963 0.181883 0)
(1.08907 0.172642 0)
(1.08709 0.162327 0)
(1.08372 0.152412 0)
(1.08195 0.145438 0)
(1.00032 0.00964806 0)
(1.00228 0.0297676 0)
(1.00628 0.0506637 0)
(1.01176 0.0719019 0)
(1.01827 0.0929019 0)
(1.02548 0.113054 0)
(1.03307 0.131777 0)
(1.04071 0.148556 0)
(1.04813 0.162961 0)
(1.05505 0.174656 0)
(1.06127 0.183402 0)
(1.06661 0.189057 0)
(1.07094 0.19158 0)
(1.07418 0.19103 0)
(1.07628 0.187586 0)
(1.07723 0.181582 0)
(1.07703 0.173571 0)
(1.07558 0.164431 0)
(1.07292 0.15558 0)
(1.07197 0.149409 0)
(1.00045 0.00827335 0)
(1.00259 0.0263683 0)
(1.00641 0.0457794 0)
(1.01134 0.0659294 0)
(1.01698 0.0861715 0)
(1.0231 0.105867 0)
(1.02947 0.12442 0)
(1.03585 0.141299 0)
(1.04204 0.156047 0)
(1.04783 0.1683 0)
(1.05307 0.177782 0)
(1.05763 0.184317 0)
(1.06138 0.187823 0)
(1.06425 0.188327 0)
(1.0662 0.18598 0)
(1.0672 0.181091 0)
(1.06724 0.174191 0)
(1.06619 0.166125 0)
(1.06417 0.158274 0)
(1.06395 0.152968 0)
(1.00062 0.00668804 0)
(1.00301 0.0229972 0)
(1.00677 0.0412472 0)
(1.01138 0.0606002 0)
(1.01651 0.080317 0)
(1.02198 0.0997242 0)
(1.02761 0.118209 0)
(1.03323 0.135225 0)
(1.03868 0.150302 0)
(1.04378 0.16305 0)
(1.04842 0.173173 0)
(1.05247 0.180464 0)
(1.05585 0.184818 0)
(1.05848 0.186233 0)
(1.0603 0.184837 0)
(1.06131 0.180915 0)
(1.06148 0.174974 0)
(1.06068 0.167834 0)
(1.05922 0.160832 0)
(1.05952 0.156146 0)
)
;

boundaryField
{
    movingWall
    {
        type            zeroGradient;
    }
    bottomWall
    {
        type            noSlip;
    }
    leftSide
    {
        type            fixedValue;
        value           uniform (1 0 0);
    }
    rightSide
    {
        type            zeroGradient;
    }
    frontAndBack
    {
        type            empty;
    }
}


// ************************************************************************* //
