/*--------------------------------*- C++ -*----------------------------------*\
| =========                 |                                                 |
| \\      /  F ield         | OpenFOAM: The Open Source CFD Toolbox           |
|  \\    /   O peration     | Version:  v2012                                 |
|   \\  /    A nd           | Website:  www.openfoam.com                      |
|    \\/     M anipulation  |                                                 |
\*---------------------------------------------------------------------------*/
FoamFile
{
    version     2.0;
    format      ascii;
    class       volScalarField;
    location    "0.1";
    object      p;
}
// * * * * * * * * * * * * * * * * * * * * * * * * * * * * * * * * * * * * * //

dimensions      [0 2 -2 0 0 0 0];


internalField   nonuniform List<scalar> 
400
(
1.30452e-07
-2.39516
-3.61176
-4.12152
-4.39229
-4.55833
-4.66584
-4.74068
-4.79667
-4.8408
-4.87693
-4.9074
-4.93378
-4.9572
-4.97852
-4.99844
-5.01752
-5.03642
-5.05531
-5.06838
-1.9569
-2.91632
-3.59201
-3.98941
-4.25467
-4.43986
-4.56991
-4.66415
-4.73532
-4.79108
-4.83616
-4.87366
-4.90569
-4.93372
-4.95887
-4.98195
-5.00358
-5.02461
-5.04612
-5.06174
-3.10382
-3.40384
-3.74005
-4.01757
-4.23455
-4.40071
-4.52665
-4.62312
-4.69855
-4.75889
-4.80825
-4.84955
-4.88488
-4.91579
-4.94342
-4.96865
-4.99214
-5.015
-5.03895
-5.05674
-3.68107
-3.75803
-3.92886
-4.11329
-4.27517
-4.40971
-4.51936
-4.60828
-4.68077
-4.74052
-4.79047
-4.83291
-4.86958
-4.90186
-4.93081
-4.9573
-4.98201
-5.00617
-5.03187
-5.05106
-4.01176
-4.01293
-4.09761
-4.21565
-4.33186
-4.43682
-4.52842
-4.60679
-4.67335
-4.72997
-4.77846
-4.8204
-4.85713
-4.88976
-4.91922
-4.94629
-4.97162
-4.99649
-5.02312
-5.04283
-4.21831
-4.19651
-4.23632
-4.31053
-4.39255
-4.4728
-4.54737
-4.6144
-4.67361
-4.72556
-4.77115
-4.81135
-4.84706
-4.87913
-4.90831
-4.93526
-4.96056
-4.98547
-5.01214
-5.03145
-4.3549
-4.32984
-4.34755
-4.3943
-4.45192
-4.51255
-4.57214
-4.62819
-4.67956
-4.72599
-4.76772
-4.80521
-4.83903
-4.86973
-4.89789
-4.92404
-4.94865
-4.9729
-4.99874
-5.01677
-4.4513
-4.42916
-4.43635
-4.46618
-4.50679
-4.55238
-4.59948
-4.64561
-4.68933
-4.72995
-4.76728
-4.80144
-4.83268
-4.86135
-4.88784
-4.91255
-4.93585
-4.95878
-4.98302
-4.99898
-4.52352
-4.5055
-4.50778
-4.52717
-4.55604
-4.59033
-4.62734
-4.66489
-4.70154
-4.73644
-4.76917
-4.7996
-4.82779
-4.85391
-4.8782
-4.90092
-4.92234
-4.94338
-4.96536
-4.97861
-4.58024
-4.56596
-4.56601
-4.57891
-4.59968
-4.62557
-4.65456
-4.68487
-4.71521
-4.74472
-4.77287
-4.79941
-4.82425
-4.84744
-4.8691
-4.88939
-4.90848
-4.92715
-4.94634
-4.95642
-4.6264
-4.61516
-4.61429
-4.62306
-4.63821
-4.65786
-4.68053
-4.70484
-4.72967
-4.75423
-4.77799
-4.80062
-4.82198
-4.842
-4.86074
-4.87827
-4.89467
-4.91061
-4.92665
-4.93327
-4.66506
-4.6562
-4.65499
-4.66111
-4.6723
-4.68729
-4.705
-4.72436
-4.74445
-4.76456
-4.78421
-4.80306
-4.8209
-4.83765
-4.8533
-4.86784
-4.88132
-4.8943
-4.90698
-4.91002
-4.69822
-4.69118
-4.68992
-4.69427
-4.70263
-4.71412
-4.72793
-4.74323
-4.75927
-4.77544
-4.79131
-4.80655
-4.82096
-4.83443
-4.8469
-4.85835
-4.86878
-4.87868
-4.8879
-4.88739
-4.72725
-4.7216
-4.72039
-4.72355
-4.72987
-4.7387
-4.74943
-4.7614
-4.77399
-4.7867
-4.79912
-4.81098
-4.82209
-4.83233
-4.84164
-4.84997
-4.85731
-4.8641
-4.86989
-4.86597
-4.75312
-4.74849
-4.74739
-4.74975
-4.7546
-4.76142
-4.76972
-4.77895
-4.78861
-4.79826
-4.80756
-4.81628
-4.82424
-4.83135
-4.83755
-4.84279
-4.84707
-4.85079
-4.85325
-4.84613
-4.77648
-4.77259
-4.77164
-4.77351
-4.77733
-4.78265
-4.78903
-4.79601
-4.80316
-4.81011
-4.81658
-4.82237
-4.82735
-4.83144
-4.83462
-4.83685
-4.83813
-4.83887
-4.83815
-4.8281
-4.79779
-4.79436
-4.79359
-4.79525
-4.79843
-4.80267
-4.80757
-4.81272
-4.81772
-4.82228
-4.82617
-4.82923
-4.83138
-4.83258
-4.83282
-4.83212
-4.83051
-4.82839
-4.82468
-4.81195
-4.81735
-4.8143
-4.81393
-4.81574
-4.81869
-4.82227
-4.82607
-4.82971
-4.83286
-4.83525
-4.83672
-4.83717
-4.83656
-4.8349
-4.83224
-4.82862
-4.82415
-4.81925
-4.8127
-4.79749
-4.83507
-4.83307
-4.83389
-4.83654
-4.83985
-4.84322
-4.84627
-4.84864
-4.85004
-4.85029
-4.84927
-4.84697
-4.8434
-4.83865
-4.83282
-4.82603
-4.81847
-4.8106
-4.80116
-4.78396
-4.84673
-4.84645
-4.84906
-4.85301
-4.857
-4.86049
-4.86308
-4.86448
-4.86445
-4.86286
-4.85969
-4.85496
-4.84878
-4.8413
-4.83268
-4.82311
-4.81289
-4.80244
-4.79046
-4.77375
)
;

boundaryField
{
    movingWall
    {
        type            zeroGradient;
    }
    bottomWall
    {
        type            zeroGradient;
    }
    leftSide
    {
        type            zeroGradient;
    }
    rightSide
    {
        type            zeroGradient;
    }
    frontAndBack
    {
        type            empty;
    }
}


// ************************************************************************* //
