/*--------------------------------*- C++ -*----------------------------------*\
| =========                 |                                                 |
| \\      /  F ield         | OpenFOAM: The Open Source CFD Toolbox           |
|  \\    /   O peration     | Version:  v2012                                 |
|   \\  /    A nd           | Website:  www.openfoam.com                      |
|    \\/     M anipulation  |                                                 |
\*---------------------------------------------------------------------------*/
FoamFile
{
    version     2.0;
    format      ascii;
    class       surfaceScalarField;
    location    "0.1";
    object      phi;
}
// * * * * * * * * * * * * * * * * * * * * * * * * * * * * * * * * * * * * * //

dimensions      [0 3 -1 0 0 0 0];
oriented        oriented;


internalField   nonuniform List<scalar> 
760
(
3.75282e-05
1.24718e-05
2.64815e-05
1.10467e-05
1.94605e-05
7.02097e-06
1.50509e-05
4.40962e-06
1.22054e-05
2.84552e-06
1.02959e-05
1.90948e-06
8.95286e-06
1.34304e-06
7.96381e-06
9.89046e-07
7.20689e-06
7.56924e-07
6.6104e-06
5.96493e-07
6.13043e-06
4.79967e-07
5.73893e-06
3.91502e-07
5.41722e-06
3.21713e-07
5.1523e-06
2.64921e-07
4.93446e-06
2.1784e-07
4.75542e-06
1.79038e-07
4.60638e-06
1.49037e-07
4.47481e-06
1.31575e-07
4.34228e-06
1.32528e-07
1.40788e-07
5.14135e-05
1.10583e-05
4.73028e-05
1.51574e-05
4.13964e-05
1.29273e-05
3.58395e-05
9.9665e-06
3.12016e-05
7.48351e-06
2.74931e-05
5.61797e-06
2.45561e-05
4.27996e-06
2.22171e-05
3.32806e-06
2.03332e-05
2.64085e-06
1.87973e-05
2.13238e-06
1.75319e-05
1.74539e-06
1.64812e-05
1.44219e-06
1.5605e-05
1.19795e-06
1.48735e-05
9.96412e-07
1.42638e-05
8.275e-07
1.37567e-05
6.86123e-07
1.33338e-05
5.72009e-07
1.29751e-05
4.90258e-07
1.26598e-05
4.47761e-07
4.36136e-07
5.2883e-05
8.17536e-06
5.34082e-05
1.46322e-05
5.1168e-05
1.51675e-05
4.76148e-05
1.35197e-05
4.37504e-05
1.13479e-05
4.00773e-05
9.29106e-06
3.67969e-05
7.56038e-06
3.39521e-05
6.17286e-06
3.15162e-05
5.07677e-06
2.94395e-05
4.20907e-06
2.76705e-05
3.5144e-06
2.61636e-05
2.94914e-06
2.48808e-05
2.48067e-06
2.37917e-05
2.08558e-06
2.2871e-05
1.74821e-06
2.20972e-05
1.45988e-06
2.14504e-05
1.21882e-06
2.09103e-05
1.03035e-06
2.04545e-05
9.0361e-07
8.39777e-07
5.23441e-05
5.83121e-06
5.44227e-05
1.25536e-05
5.46395e-05
1.49506e-05
5.329e-05
1.48692e-05
5.10064e-05
1.36316e-05
4.83068e-05
1.19906e-05
4.5533e-05
1.03342e-05
4.28768e-05
8.829e-06
4.04299e-05
7.52369e-06
3.82253e-05
6.41366e-06
3.62657e-05
5.47399e-06
3.45397e-05
4.67513e-06
3.30307e-05
3.98971e-06
3.1721e-05
3.39526e-06
3.05939e-05
2.87533e-06
2.96336e-05
2.42021e-06
2.88245e-05
2.02786e-06
2.815e-05
1.70488e-06
2.75878e-05
1.46577e-06
1.3288e-06
5.16289e-05
4.20227e-06
5.38882e-05
1.02943e-05
5.52738e-05
1.3565e-05
5.54635e-05
1.46796e-05
5.46441e-05
1.4451e-05
5.31347e-05
1.34999e-05
5.12337e-05
1.22353e-05
4.91664e-05
1.08963e-05
4.70833e-05
9.60673e-06
4.50768e-05
8.42019e-06
4.31988e-05
7.35196e-06
4.14759e-05
6.39807e-06
3.99192e-05
5.54642e-06
3.85312e-05
4.78322e-06
3.73098e-05
4.09672e-06
3.62501e-05
3.47991e-06
3.53451e-05
2.93293e-06
3.45841e-05
2.46583e-06
3.39484e-05
2.10148e-06
1.88052e-06
5.10857e-05
3.11653e-06
5.30513e-05
8.32876e-06
5.48064e-05
1.181e-05
5.58435e-05
1.36425e-05
5.60668e-05
1.42277e-05
5.5586e-05
1.39807e-05
5.45835e-05
1.32378e-05
5.32411e-05
1.22388e-05
5.17094e-05
1.11384e-05
5.01016e-05
1.0028e-05
4.84976e-05
8.95602e-06
4.6951e-05
7.94461e-06
4.5497e-05
7.0004e-06
4.41578e-05
6.12248e-06
4.29468e-05
5.3077e-06
4.18718e-05
4.55489e-06
4.09358e-05
3.86892e-06
4.01362e-05
3.26545e-06
3.94598e-05
2.77787e-06
2.47159e-06
5.07289e-05
2.38761e-06
5.23073e-05
6.75039e-06
5.4029e-05
1.00883e-05
5.5418e-05
1.22535e-05
5.62584e-05
1.33873e-05
5.65169e-05
1.37222e-05
5.62622e-05
1.34925e-05
5.56048e-05
1.28962e-05
5.46605e-05
1.20827e-05
5.35326e-05
1.11558e-05
5.23056e-05
1.01831e-05
5.10449e-05
9.20531e-06
4.97998e-05
8.24555e-06
4.86064e-05
7.31585e-06
4.74911e-05
6.42295e-06
4.64728e-05
5.57321e-06
4.55639e-05
4.77786e-06
4.47697e-05
4.05963e-06
4.40842e-05
3.46337e-06
3.07911e-06
5.0503e-05
1.88461e-06
5.17331e-05
5.52034e-06
5.32581e-05
8.56325e-06
5.47049e-05
1.08066e-05
5.58389e-05
1.22533e-05
5.65545e-05
1.30066e-05
5.68397e-05
1.32073e-05
5.67383e-05
1.29976e-05
5.63206e-05
1.25005e-05
5.56632e-05
1.18132e-05
5.48389e-05
1.10074e-05
5.3911e-05
1.01332e-05
5.29325e-05
9.22412e-06
5.19459e-05
8.3024e-06
5.09853e-05
7.38353e-06
5.00772e-05
6.48136e-06
4.92411e-05
5.61394e-06
4.84892e-05
4.81149e-06
4.78225e-05
4.13011e-06
3.6821e-06
5.03583e-05
1.52631e-06
5.13091e-05
4.56952e-06
5.25958e-05
7.27655e-06
5.39506e-05
9.45187e-06
5.5167e-05
1.10369e-05
5.61174e-05
1.20561e-05
5.67447e-05
1.258e-05
5.70444e-05
1.26979e-05
5.70453e-05
1.24996e-05
5.67937e-05
1.20648e-05
5.63424e-05
1.14586e-05
5.5744e-05
1.07316e-05
5.50466e-05
9.92157e-06
5.42925e-05
9.05653e-06
5.35177e-05
8.15826e-06
5.27523e-05
7.24679e-06
5.20199e-05
6.3463e-06
5.13374e-05
5.49399e-06
5.07116e-05
4.75593e-06
4.26278e-06
5.02627e-05
1.26365e-06
5.09989e-05
3.8333e-06
5.20586e-05
6.21684e-06
5.32585e-05
8.25191e-06
5.44348e-05
9.86065e-06
5.54655e-05
1.10255e-05
5.62756e-05
1.17699e-05
5.68317e-05
1.21417e-05
5.71322e-05
1.21991e-05
5.71965e-05
1.20004e-05
5.70567e-05
1.15984e-05
5.67503e-05
1.1038e-05
5.63159e-05
1.03559e-05
5.57906e-05
9.58183e-06
5.52081e-05
8.74079e-06
5.45979e-05
7.85698e-06
5.39848e-05
6.95935e-06
5.33879e-05
6.09087e-06
5.28183e-05
5.32552e-06
4.80747e-06
5.01972e-05
1.06648e-06
5.07705e-05
3.25993e-06
5.16331e-05
5.35425e-06
5.26628e-05
7.22223e-06
5.37365e-05
8.78695e-06
5.47501e-05
1.00119e-05
5.56275e-05
1.08925e-05
5.63219e-05
1.14472e-05
5.68129e-05
1.17082e-05
5.70999e-05
1.17134e-05
5.71969e-05
1.15015e-05
5.71266e-05
1.11083e-05
5.69165e-05
1.0566e-05
5.65957e-05
9.90263e-06
5.61926e-05
9.14388e-06
5.57336e-05
8.31596e-06
5.5242e-05
7.45096e-06
5.47369e-05
6.59594e-06
5.4232e-05
5.83046e-06
5.3069e-06
5.01508e-05
9.15694e-07
5.06006e-05
2.81013e-06
5.12993e-05
4.65556e-06
5.21664e-05
6.3551e-06
5.31124e-05
7.84093e-06
5.40537e-05
9.07064e-06
5.49215e-05
1.00247e-05
5.56663e-05
1.07024e-05
5.6258e-05
1.11165e-05
5.66835e-05
1.1288e-05
5.69431e-05
1.12418e-05
5.70473e-05
1.10042e-05
5.70128e-05
1.06005e-05
5.68602e-05
1.00553e-05
5.66112e-05
9.39286e-06
5.62875e-05
8.63966e-06
5.59092e-05
7.8293e-06
5.54938e-05
7.01132e-06
5.50559e-05
6.26836e-06
5.756e-06
5.01171e-05
7.98567e-07
5.04729e-05
2.45434e-06
5.10385e-05
4.08997e-06
5.17608e-05
5.63286e-06
5.25754e-05
7.02629e-06
5.34175e-05
8.22856e-06
5.4229e-05
9.2132e-06
5.49634e-05
9.96793e-06
5.55879e-05
1.0492e-05
5.60825e-05
1.07933e-05
5.64391e-05
1.08852e-05
5.66588e-05
1.07845e-05
5.67496e-05
1.05097e-05
5.67241e-05
1.00808e-05
5.65977e-05
9.51933e-06
5.63864e-05
8.85089e-06
5.61064e-05
8.10928e-06
5.57728e-05
7.34498e-06
5.53997e-05
6.64149e-06
6.15322e-06
5.00924e-05
7.06159e-07
5.03768e-05
2.16995e-06
5.08361e-05
3.63066e-06
5.14344e-05
5.03454e-06
5.21254e-05
6.3353e-06
5.28595e-05
7.4945e-06
5.35895e-05
8.48319e-06
5.42749e-05
9.28251e-06
5.48841e-05
9.88284e-06
5.53951e-05
1.02824e-05
5.5795e-05
1.04853e-05
5.60791e-05
1.05004e-05
5.62488e-05
1.03399e-05
5.63106e-05
1.0019e-05
5.62738e-05
9.55608e-06
5.61497e-05
8.97503e-06
5.595e-05
8.30898e-06
5.56868e-05
7.60818e-06
5.53731e-05
6.95516e-06
6.49966e-06
5.00745e-05
6.31651e-07
5.03055e-05
1.93895e-06
5.06816e-05
3.25453e-06
5.11771e-05
4.53908e-06
5.17577e-05
5.75469e-06
5.23857e-05
6.86653e-06
5.30237e-05
7.84518e-06
5.36381e-05
8.66815e-06
5.42008e-05
9.32011e-06
5.46907e-05
9.79248e-06
5.50934e-05
1.00826e-05
5.54009e-05
1.01929e-05
5.56107e-05
1.01301e-05
5.57245e-05
9.90511e-06
5.57473e-05
9.53331e-06
5.56858e-05
9.03653e-06
5.5548e-05
8.44675e-06
5.5343e-05
7.81319e-06
5.5082e-05
7.21613e-06
6.79818e-06
5.00624e-05
5.69242e-07
5.02553e-05
1.74608e-06
5.05684e-05
2.94146e-06
5.09809e-05
4.12651e-06
5.14667e-05
5.26897e-06
5.19966e-05
6.3366e-06
5.25417e-05
7.30004e-06
5.30752e-05
8.13471e-06
5.35736e-05
8.82164e-06
5.40184e-05
9.34768e-06
5.43958e-05
9.70523e-06
5.46968e-05
9.89192e-06
5.49167e-05
9.91019e-06
5.50545e-05
9.76736e-06
5.51116e-05
9.47615e-06
5.50917e-05
9.05648e-06
5.49994e-05
8.53901e-06
5.48411e-05
7.97153e-06
5.46259e-05
7.43131e-06
7.0526e-06
5.00561e-05
5.1315e-07
5.02248e-05
1.57738e-06
5.04926e-05
2.67361e-06
5.08406e-05
3.77858e-06
5.12473e-05
4.86226e-06
5.16905e-05
5.89336e-06
5.21483e-05
6.8423e-06
5.25998e-05
7.68312e-06
5.30269e-05
8.39454e-06
5.34142e-05
8.96038e-06
5.37498e-05
9.36967e-06
5.40251e-05
9.61662e-06
5.42348e-05
9.70051e-06
5.43762e-05
9.62591e-06
5.4449e-05
9.40338e-06
5.44542e-05
9.05126e-06
5.43943e-05
8.59895e-06
5.42731e-05
8.09273e-06
5.40975e-05
7.60688e-06
7.26703e-06
5.00574e-05
4.55785e-07
5.02151e-05
1.41966e-06
5.0453e-05
2.43568e-06
5.07522e-05
3.47939e-06
5.10951e-05
4.51932e-06
5.1465e-05
5.5235e-06
5.18456e-05
6.46173e-06
5.22216e-05
7.30709e-06
5.25793e-05
8.0368e-06
5.2907e-05
8.63275e-06
5.31948e-05
9.0818e-06
5.34356e-05
9.37583e-06
5.36242e-05
9.51193e-06
5.37574e-05
9.4927e-06
5.38337e-05
9.32705e-06
5.3853e-05
9.03203e-06
5.38159e-05
8.636e-06
5.37248e-05
8.18385e-06
5.35839e-05
7.74779e-06
7.44517e-06
5.00695e-05
3.86263e-07
5.0227e-05
1.26216e-06
5.04465e-05
2.2162e-06
5.07103e-05
3.21559e-06
5.10046e-05
4.22503e-06
5.1317e-05
5.21108e-06
5.16358e-05
6.14289e-06
5.19501e-05
6.99286e-06
5.22496e-05
7.73729e-06
5.25255e-05
8.35687e-06
5.27702e-05
8.83706e-06
5.29778e-05
9.16826e-06
5.31436e-05
9.34607e-06
5.32647e-05
9.37167e-06
5.3339e-05
9.25273e-06
5.33657e-05
9.00527e-06
5.3345e-05
8.65671e-06
5.32788e-05
8.2501e-06
5.31709e-05
7.85562e-06
7.59339e-06
5.00846e-05
5.02484e-05
5.04577e-05
5.07001e-05
5.09653e-05
5.12433e-05
5.15252e-05
5.18021e-05
5.20661e-05
5.231e-05
5.25277e-05
5.27139e-05
5.28647e-05
5.2977e-05
5.30489e-05
5.30795e-05
5.30694e-05
5.30194e-05
5.29318e-05
)
;

boundaryField
{
    movingWall
    {
        type            calculated;
        value           nonuniform List<scalar> 
20
(
3.01619e-07
1.09843e-06
2.00691e-06
2.97312e-06
3.9599e-06
4.93302e-06
5.86108e-06
6.71595e-06
7.47328e-06
8.11294e-06
8.6194e-06
8.98202e-06
9.1953e-06
9.25935e-06
9.18083e-06
8.97464e-06
8.66684e-06
8.30008e-06
7.94327e-06
7.70726e-06
)
;
    }
    bottomWall
    {
        type            calculated;
        value           uniform 0;
    }
    leftSide
    {
        type            calculated;
        value           nonuniform List<scalar> 
20
(
-5e-05
-5e-05
-5e-05
-5e-05
-5e-05
-5e-05
-5e-05
-5e-05
-5e-05
-5e-05
-5e-05
-5e-05
-5e-05
-5e-05
-5e-05
-5e-05
-5e-05
-5e-05
-5e-05
-5e-05
)
;
    }
    rightSide
    {
        type            calculated;
        value           nonuniform List<scalar> 
20
(
4.20149e-06
1.23645e-05
2.00508e-05
2.70988e-05
3.33967e-05
3.88687e-05
4.34767e-05
4.72195e-05
5.01309e-05
5.22737e-05
5.37326e-05
5.46068e-05
5.50024e-05
5.50267e-05
5.47835e-05
5.43715e-05
5.38831e-05
5.34057e-05
5.30227e-05
5.28179e-05
)
;
    }
    frontAndBack
    {
        type            empty;
        value           nonuniform List<scalar> 0();
    }
}


// ************************************************************************* //
