/*--------------------------------*- C++ -*----------------------------------*\
| =========                 |                                                 |
| \\      /  F ield         | OpenFOAM: The Open Source CFD Toolbox           |
|  \\    /   O peration     | Version:  v2012                                 |
|   \\  /    A nd           | Website:  www.openfoam.com                      |
|    \\/     M anipulation  |                                                 |
\*---------------------------------------------------------------------------*/
FoamFile
{
    version     2.0;
    format      ascii;
    class       volVectorField;
    location    "0.1";
    object      U;
}
// * * * * * * * * * * * * * * * * * * * * * * * * * * * * * * * * * * * * * //

dimensions      [0 1 -1 0 0 0 0];


internalField   nonuniform List<vector> 
400
(
(0.725865 0.132329 0)
(0.621604 0.125314 0)
(0.46119 0.0768969 0)
(0.340552 0.0441027 0)
(0.26819 0.0256762 0)
(0.222334 0.0155987 0)
(0.190794 0.0100641 0)
(0.168011 0.0069269 0)
(0.150891 0.00504614 0)
(0.137577 0.00383978 0)
(0.126957 0.00301225 0)
(0.118339 0.00240923 0)
(0.111274 0.00194661 0)
(0.105458 0.00157708 0)
(0.100669 0.00127535 0)
(0.0967375 0.00103276 0)
(0.0935114 0.000859851 0)
(0.0907528 0.000800165 0)
(0.0879492 0.000910352 0)
(0.0852327 0.00108329 0)
(0.994946 0.251732 0)
(0.998014 0.288329 0)
(0.894435 0.215257 0)
(0.77055 0.148695 0)
(0.666286 0.10217 0)
(0.583333 0.0715024 0)
(0.517598 0.0516294 0)
(0.465445 0.0385975 0)
(0.423718 0.029775 0)
(0.389907 0.0235589 0)
(0.362179 0.0189963 0)
(0.339227 0.0155149 0)
(0.320113 0.0127636 0)
(0.304154 0.0105252 0)
(0.290836 0.00867129 0)
(0.279754 0.00714265 0)
(0.270569 0.0059485 0)
(0.262848 0.00518472 0)
(0.255758 0.00497291 0)
(0.249757 0.00509152 0)
(1.02785 0.202017 0)
(1.07523 0.311744 0)
(1.05518 0.293913 0)
(0.99143 0.244182 0)
(0.91377 0.193628 0)
(0.836911 0.151271 0)
(0.766854 0.118526 0)
(0.705551 0.0939433 0)
(0.652905 0.075509 0)
(0.608002 0.061504 0)
(0.569761 0.0506492 0)
(0.53719 0.0420381 0)
(0.509449 0.0350422 0)
(0.485858 0.0292353 0)
(0.465864 0.0243447 0)
(0.449016 0.0202258 0)
(0.434942 0.0168556 0)
(0.423183 0.0143363 0)
(0.412777 0.0128165 0)
(0.404382 0.0121652 0)
(1.02212 0.140315 0)
(1.07372 0.275669 0)
(1.09817 0.308988 0)
(1.08515 0.292803 0)
(1.04615 0.257498 0)
(0.994259 0.218495 0)
(0.938274 0.182663 0)
(0.883313 0.152168 0)
(0.83199 0.127024 0)
(0.785389 0.106484 0)
(0.743765 0.0896533 0)
(0.706973 0.0757189 0)
(0.674701 0.064019 0)
(0.646594 0.054052 0)
(0.6223 0.0454687 0)
(0.601498 0.0380679 0)
(0.583922 0.0318007 0)
(0.569189 0.026777 0)
(0.556307 0.0232187 0)
(0.546113 0.0212786 0)
(1.0139 0.0987493 0)
(1.05635 0.228224 0)
(1.09604 0.288414 0)
(1.11271 0.301083 0)
(1.10524 0.287011 0)
(1.08039 0.260553 0)
(1.04501 0.230303 0)
(1.00443 0.200727 0)
(0.962344 0.173756 0)
(0.921103 0.149957 0)
(0.882069 0.12924 0)
(0.845968 0.111244 0)
(0.813137 0.0955399 0)
(0.783689 0.0817355 0)
(0.757609 0.0695237 0)
(0.734825 0.0587187 0)
(0.715261 0.0492881 0)
(0.69868 0.0413869 0)
(0.684143 0.0353773 0)
(0.6727 0.0318268 0)
(1.00827 0.0719185 0)
(1.04001 0.184866 0)
(1.08034 0.254348 0)
(1.11025 0.285874 0)
(1.12289 0.290695 0)
(1.11953 0.279124 0)
(1.10379 0.258853 0)
(1.07953 0.234944 0)
(1.05015 0.210389 0)
(1.01828 0.186769 0)
(0.985841 0.164786 0)
(0.954119 0.144646 0)
(0.923974 0.126295 0)
(0.895955 0.109578 0)
(0.870398 0.0943335 0)
(0.84751 0.0804666 0)
(0.827441 0.0680169 0)
(0.810127 0.0572327 0)
(0.794751 0.0486699 0)
(0.782618 0.0433844 0)
(1.00498 0.0541576 0)
(1.02802 0.1493 0)
(1.06341 0.218368 0)
(1.09662 0.259776 0)
(1.11961 0.278214 0)
(1.13047 0.279874 0)
(1.13005 0.270455 0)
(1.12037 0.254448 0)
(1.10381 0.235031 0)
(1.08263 0.214268 0)
(1.05871 0.1934 0)
(1.03355 0.173103 0)
(1.00828 0.153699 0)
(0.983744 0.135307 0)
(0.960544 0.117967 0)
(0.939131 0.101725 0)
(0.919854 0.0867381 0)
(0.902823 0.0733859 0)
(0.887376 0.0624506 0)
(0.875105 0.0554957 0)
(1.00312 0.0421102 0)
(1.01987 0.121404 0)
(1.04903 0.185479 0)
(1.08055 0.230425 0)
(1.10728 0.257206 0)
(1.12605 0.26889 0)
(1.13597 0.269117 0)
(1.13752 0.261289 0)
(1.13197 0.24819 0)
(1.12084 0.231902 0)
(1.10569 0.21388 0)
(1.08788 0.195083 0)
(1.06858 0.17611 0)
(1.04874 0.157322 0)
(1.02912 0.138954 0)
(1.01032 0.121211 0)
(0.992835 0.104388 0)
(0.976914 0.0890156 0)
(0.962057 0.0761083 0)
(0.950151 0.0677105 0)
(1.00206 0.0336858 0)
(1.01439 0.0998533 0)
(1.03778 0.157313 0)
(1.06558 0.201944 0)
(1.09219 0.232927 0)
(1.11432 0.25132 0)
(1.13024 0.259103 0)
(1.13945 0.258542 0)
(1.14227 0.251768 0)
(1.13951 0.240579 0)
(1.13222 0.226384 0)
(1.12148 0.210225 0)
(1.10829 0.192848 0)
(1.09358 0.174776 0)
(1.07813 0.156397 0)
(1.0626 0.138059 0)
(1.04755 0.120191 0)
(1.03333 0.103472 0)
(1.01957 0.0891329 0)
(1.00844 0.0796329 0)
(1.00143 0.0276027 0)
(1.01065 0.0832167 0)
(1.02921 0.13395 0)
(1.05282 0.176235 0)
(1.07735 0.20858 0)
(1.09991 0.230911 0)
(1.11859 0.244058 0)
(1.13235 0.249327 0)
(1.14087 0.248174 0)
(1.14439 0.241978 0)
(1.14346 0.231936 0)
(1.1388 0.219024 0)
(1.13121 0.20401 0)
(1.12144 0.187489 0)
(1.1102 0.169945 0)
(1.09814 0.151831 0)
(1.08583 0.133687 0)
(1.07362 0.116321 0)
(1.06129 0.101147 0)
(1.05125 0.0909451 0)
(1.00103 0.0230884 0)
(1.00804 0.0703082 0)
(1.02274 0.114874 0)
(1.04238 0.153933 0)
(1.06402 0.185888 0)
(1.08535 0.210114 0)
(1.10457 0.226721 0)
(1.12046 0.236315 0)
(1.13237 0.239763 0)
(1.14011 0.238014 0)
(1.14386 0.231982 0)
(1.144 0.222485 0)
(1.14106 0.210223 0)
(1.13561 0.195788 0)
(1.12823 0.179697 0)
(1.11948 0.162466 0)
(1.1099 0.144713 0)
(1.09981 0.127347 0)
(1.08907 0.111916 0)
(1.08031 0.101419 0)
(1.00077 0.0196659 0)
(1.00617 0.0602211 0)
(1.01784 0.0994078 0)
(1.03399 0.135033 0)
(1.05259 0.165633 0)
(1.07184 0.190379 0)
(1.09024 0.208977 0)
(1.10657 0.221562 0)
(1.12004 0.228548 0)
(1.13025 0.230505 0)
(1.13707 0.228062 0)
(1.14064 0.221838 0)
(1.14125 0.212412 0)
(1.13927 0.20032 0)
(1.13514 0.186067 0)
(1.12931 0.170188 0)
(1.12223 0.153347 0)
(1.11415 0.13652 0)
(1.10502 0.121339 0)
(1.0976 0.110914 0)
(1.00058 0.0170271 0)
(1.0048 0.0522767 0)
(1.01411 0.0868974 0)
(1.02733 0.119234 0)
(1.04304 0.148045 0)
(1.05992 0.172469 0)
(1.07672 0.192018 0)
(1.09239 0.206531 0)
(1.10611 0.216104 0)
(1.11737 0.221003 0)
(1.12591 0.221601 0)
(1.13165 0.218321 0)
(1.1347 0.211602 0)
(1.13528 0.201892 0)
(1.13368 0.189653 0)
(1.13022 0.175409 0)
(1.12526 0.159841 0)
(1.11899 0.143955 0)
(1.11136 0.129424 0)
(1.10528 0.11937 0)
(1.00045 0.0149618 0)
(1.00379 0.0459628 0)
(1.01127 0.0767633 0)
(1.02209 0.106131 0)
(1.03524 0.133044 0)
(1.04974 0.156698 0)
(1.0646 0.176523 0)
(1.07894 0.19219 0)
(1.09202 0.203577 0)
(1.10332 0.210726 0)
(1.11247 0.213803 0)
(1.11932 0.213053 0)
(1.12384 0.208781 0)
(1.12611 0.201337 0)
(1.12631 0.191123 0)
(1.12464 0.178632 0)
(1.12137 0.16454 0)
(1.1166 0.149858 0)
(1.11033 0.136255 0)
(1.10551 0.126788 0)
(1.00036 0.0133165 0)
(1.00306 0.0408805 0)
(1.00915 0.0685073 0)
(1.01805 0.0952899 0)
(1.029 0.120399 0)
(1.04128 0.143105 0)
(1.05412 0.162819 0)
(1.0668 0.179118 0)
(1.0787 0.19174 0)
(1.08931 0.200568 0)
(1.0983 0.205607 0)
(1.10543 0.20696 0)
(1.1106 0.204812 0)
(1.11382 0.19942 0)
(1.11516 0.19112 0)
(1.11474 0.180371 0)
(1.11272 0.167823 0)
(1.10916 0.154476 0)
(1.10405 0.141962 0)
(1.10038 0.133215 0)
(1.0003 0.0119699 0)
(1.00256 0.0367061 0)
(1.00764 0.061703 0)
(1.01504 0.0863005 0)
(1.02417 0.109812 0)
(1.03447 0.131575 0)
(1.04536 0.151001 0)
(1.05628 0.167616 0)
(1.06671 0.181069 0)
(1.07622 0.191133 0)
(1.0845 0.197697 0)
(1.09132 0.200754 0)
(1.09655 0.20039 0)
(1.10012 0.196782 0)
(1.10206 0.19021 0)
(1.10241 0.18109 0)
(1.10128 0.170048 0)
(1.09864 0.158055 0)
(1.09451 0.146689 0)
(1.09187 0.13872 0)
(1.00028 0.0108156 0)
(1.00229 0.0331695 0)
(1.00668 0.055998 0)
(1.01297 0.0788079 0)
(1.02063 0.100996 0)
(1.02924 0.121938 0)
(1.03836 0.141046 0)
(1.04755 0.157813 0)
(1.05642 0.171833 0)
(1.06464 0.182805 0)
(1.07192 0.190537 0)
(1.07807 0.194943 0)
(1.08294 0.196033 0)
(1.08646 0.193922 0)
(1.08859 0.188841 0)
(1.08937 0.18117 0)
(1.08882 0.17151 0)
(1.08688 0.1608 0)
(1.08358 0.150555 0)
(1.08185 0.143368 0)
(1.00032 0.00970472 0)
(1.00229 0.0299652 0)
(1.00629 0.0510229 0)
(1.01177 0.0724326 0)
(1.01828 0.0936021 0)
(1.0255 0.113908 0)
(1.03308 0.132755 0)
(1.04072 0.149614 0)
(1.04813 0.164041 0)
(1.05504 0.175689 0)
(1.06124 0.184314 0)
(1.06656 0.189771 0)
(1.07087 0.192019 0)
(1.0741 0.191129 0)
(1.0762 0.187291 0)
(1.07716 0.18086 0)
(1.07699 0.172411 0)
(1.07557 0.162857 0)
(1.07298 0.153656 0)
(1.07207 0.147257 0)
(1.00046 0.00832693 0)
(1.0026 0.0265591 0)
(1.00642 0.0461302 0)
(1.01136 0.0664518 0)
(1.01702 0.0868649 0)
(1.02314 0.106717 0)
(1.02951 0.125397 0)
(1.0359 0.142357 0)
(1.04209 0.15713 0)
(1.04789 0.169338 0)
(1.05313 0.1787 0)
(1.05768 0.185034 0)
(1.06144 0.188263 0)
(1.06432 0.188422 0)
(1.06628 0.185672 0)
(1.06729 0.180344 0)
(1.06736 0.172992 0)
(1.06636 0.164496 0)
(1.06441 0.15628 0)
(1.06422 0.150732 0)
(1.00062 0.00673671 0)
(1.00301 0.0231778 0)
(1.00679 0.041585 0)
(1.01141 0.0611085 0)
(1.01655 0.0809961 0)
(1.02203 0.10056 0)
(1.02768 0.119172 0)
(1.03331 0.136271 0)
(1.03876 0.151372 0)
(1.04388 0.164076 0)
(1.04853 0.174076 0)
(1.05259 0.181165 0)
(1.05598 0.185237 0)
(1.05862 0.1863 0)
(1.06047 0.184494 0)
(1.06151 0.180122 0)
(1.06171 0.173718 0)
(1.06096 0.166135 0)
(1.05955 0.158755 0)
(1.05989 0.153819 0)
)
;

boundaryField
{
    movingWall
    {
        type            zeroGradient;
    }
    bottomWall
    {
        type            noSlip;
    }
    leftSide
    {
        type            fixedValue;
        value           uniform (1 0 0);
    }
    rightSide
    {
        type            zeroGradient;
    }
    frontAndBack
    {
        type            empty;
    }
}


// ************************************************************************* //
