/*--------------------------------*- C++ -*----------------------------------*\
| =========                 |                                                 |
| \\      /  F ield         | OpenFOAM: The Open Source CFD Toolbox           |
|  \\    /   O peration     | Version:  v2012                                 |
|   \\  /    A nd           | Website:  www.openfoam.com                      |
|    \\/     M anipulation  |                                                 |
\*---------------------------------------------------------------------------*/
FoamFile
{
    version     2.0;
    format      ascii;
    class       volScalarField;
    location    "1";
    object      p;
}
// * * * * * * * * * * * * * * * * * * * * * * * * * * * * * * * * * * * * * //

dimensions      [0 2 -2 0 0 0 0];


internalField   nonuniform List<scalar> 
800
(
1.02187e-08
0.00606767
0.0191438
0.0344971
0.0508652
0.0681413
0.0863648
0.105714
0.12653
0.149325
0.174786
0.203788
0.237411
0.276899
0.322974
0.374353
0.431717
0.517521
0.655734
0.609308
-0.0139983
-0.0106329
-0.00011214
0.0126396
0.0262307
0.0403282
0.0547065
0.0692145
0.0837113
0.0979583
0.111483
0.123398
0.132204
0.135619
0.130325
0.111596
0.0744812
0.018564
-0.0550892
-0.173972
-0.0353812
-0.0346865
-0.0271686
-0.0174898
-0.00718902
0.00317354
0.0131192
0.0221913
0.0298617
0.0354231
0.0379036
0.036016
0.0281731
0.0125983
-0.0124992
-0.0487237
-0.0971839
-0.158308
-0.232746
-0.32127
-0.0591283
-0.0596029
-0.0542643
-0.0471427
-0.0397389
-0.0327343
-0.0267568
-0.0224316
-0.0204544
-0.0216528
-0.0270024
-0.0375912
-0.0545277
-0.0788002
-0.111107
-0.151674
-0.200094
-0.255364
-0.316163
-0.380536
-0.0845352
-0.0853553
-0.0816929
-0.0768153
-0.072074
-0.0681891
-0.0658448
-0.0657172
-0.068514
-0.0749955
-0.0859471
-0.102109
-0.12407
-0.152145
-0.186256
-0.22585
-0.269887
-0.316925
-0.365312
-0.413287
-0.11131
-0.112161
-0.109909
-0.107053
-0.104749
-0.103691
-0.104543
-0.107934
-0.114479
-0.124762
-0.139295
-0.158444
-0.182343
-0.210828
-0.243398
-0.279224
-0.317226
-0.356187
-0.39489
-0.432219
-0.138993
-0.139716
-0.138652
-0.137577
-0.13742
-0.138804
-0.142308
-0.148458
-0.157715
-0.170457
-0.186931
-0.207202
-0.231108
-0.258242
-0.287966
-0.319466
-0.351828
-0.384142
-0.415588
-0.445486
-0.167156
-0.167656
-0.167581
-0.168039
-0.169721
-0.17314
-0.178756
-0.186957
-0.198041
-0.212191
-0.229446
-0.249668
-0.272535
-0.297555
-0.324099
-0.351465
-0.378946
-0.405893
-0.431769
-0.456168
-0.195459
-0.195689
-0.196438
-0.198201
-0.201427
-0.206498
-0.213738
-0.223387
-0.235592
-0.250378
-0.267634
-0.287108
-0.308411
-0.331054
-0.354483
-0.378135
-0.401485
-0.424086
-0.445592
-0.46576
-0.223631
-0.223573
-0.225012
-0.227881
-0.232387
-0.238772
-0.247217
-0.257827
-0.270616
-0.285493
-0.302254
-0.320592
-0.340114
-0.360377
-0.380924
-0.401323
-0.421195
-0.440238
-0.458232
-0.475035
-0.251443
-0.251099
-0.253126
-0.256938
-0.262501
-0.269918
-0.279232
-0.290426
-0.303413
-0.318018
-0.33399
-0.351007
-0.368707
-0.386713
-0.404663
-0.422235
-0.439162
-0.455246
-0.470352
-0.484402
-0.278699
-0.278082
-0.280631
-0.285263
-0.291712
-0.299942
-0.309872
-0.321381
-0.334303
-0.348414
-0.363443
-0.379083
-0.395018
-0.41094
-0.426572
-0.441682
-0.456091
-0.469672
-0.482352
-0.494096
-0.305225
-0.304362
-0.307407
-0.312785
-0.320003
-0.328894
-0.339264
-0.35091
-0.363607
-0.377106
-0.391137
-0.405423
-0.419697
-0.43372
-0.447289
-0.460243
-0.472471
-0.483902
-0.494503
-0.50427
-0.330854
-0.329795
-0.333357
-0.339462
-0.347389
-0.356853
-0.367562
-0.379243
-0.391638
-0.404484
-0.417527
-0.430528
-0.443271
-0.455576
-0.467305
-0.478358
-0.488672
-0.498222
-0.507007
-0.515045
-0.3554
-0.354232
-0.358389
-0.365258
-0.373897
-0.38391
-0.394924
-0.406614
-0.418696
-0.430911
-0.443026
-0.45484
-0.466188
-0.476946
-0.487028
-0.496385
-0.504999
-0.512877
-0.520044
-0.526538
-0.37863
-0.377496
-0.382383
-0.390111
-0.399518
-0.410114
-0.421461
-0.433196
-0.445021
-0.456685
-0.467979
-0.47874
-0.488847
-0.498224
-0.506832
-0.514667
-0.521746
-0.528108
-0.533803
-0.538886
-0.400305
-0.399484
-0.405325
-0.41406
-0.42433
-0.435573
-0.447305
-0.459143
-0.470787
-0.482
-0.492602
-0.502462
-0.5115
-0.51968
-0.527001
-0.533491
-0.5392
-0.544192
-0.548537
-0.552309
-0.420317
-0.42052
-0.427773
-0.437799
-0.449113
-0.461121
-0.473322
-0.485326
-0.496841
-0.50765
-0.517603
-0.526609
-0.534631
-0.541675
-0.54778
-0.55301
-0.55744
-0.561155
-0.564238
-0.566772
-0.438164
-0.440587
-0.449906
-0.461645
-0.474334
-0.487415
-0.500402
-0.512903
-0.524624
-0.535352
-0.544945
-0.553333
-0.560503
-0.566493
-0.571383
-0.575277
-0.578299
-0.580583
-0.582263
-0.583477
-0.449681
-0.454061
-0.46485
-0.477835
-0.49159
-0.505626
-0.519501
-0.532829
-0.545306
-0.556704
-0.566866
-0.575702
-0.583187
-0.589341
-0.594228
-0.597936
-0.60057
-0.602251
-0.603101
-0.603164
-0.353258
-0.878772
-1.09306
-1.19111
-1.22616
-1.21673
-1.18246
-1.13894
-1.09502
-1.05465
-1.01905
-0.988102
-0.961178
-0.937627
-0.916958
-0.898913
-0.883513
-0.871183
-0.862939
-0.858219
-0.384013
-0.567851
-0.70902
-0.818851
-0.899465
-0.95129
-0.978819
-0.988373
-0.985807
-0.975792
-0.961736
-0.945916
-0.929731
-0.914006
-0.899247
-0.885835
-0.874167
-0.864844
-0.859032
-0.855467
-0.421388
-0.527208
-0.627394
-0.714325
-0.78508
-0.838804
-0.876398
-0.900061
-0.91255
-0.916628
-0.914763
-0.90898
-0.900841
-0.891502
-0.881828
-0.872514
-0.864182
-0.857568
-0.854129
-0.852149
-0.447228
-0.516966
-0.587189
-0.653521
-0.712827
-0.76298
-0.802948
-0.8328
-0.853442
-0.866256
-0.8728
-0.87459
-0.872984
-0.869135
-0.86401
-0.858445
-0.853197
-0.849104
-0.847951
-0.847814
-0.460863
-0.510362
-0.561944
-0.613404
-0.662477
-0.707149
-0.745901
-0.777872
-0.802872
-0.821263
-0.833799
-0.841441
-0.84522
-0.846136
-0.845123
-0.843048
-0.84073
-0.839063
-0.840118
-0.841929
-0.468666
-0.506564
-0.54665
-0.58776
-0.628472
-0.667312
-0.702937
-0.734295
-0.760729
-0.782013
-0.798309
-0.81008
-0.817988
-0.822794
-0.825301
-0.826326
-0.82668
-0.827268
-0.830367
-0.834043
-0.474474
-0.504622
-0.536776
-0.570311
-0.604355
-0.637895
-0.66988
-0.699339
-0.725496
-0.747845
-0.76619
-0.780625
-0.791485
-0.799283
-0.804647
-0.808288
-0.810968
-0.813552
-0.818448
-0.823734
-0.479742
-0.504277
-0.530584
-0.558321
-0.586955
-0.615805
-0.644097
-0.671033
-0.695875
-0.718033
-0.737125
-0.753004
-0.765757
-0.775672
-0.783198
-0.788918
-0.793506
-0.797758
-0.804137
-0.810636
-0.485206
-0.505454
-0.52724
-0.550373
-0.574523
-0.599241
-0.623971
-0.648095
-0.670983
-0.692066
-0.710896
-0.727196
-0.740884
-0.75207
-0.761044
-0.768253
-0.774271
-0.779795
-0.787283
-0.794488
-0.491207
-0.508045
-0.526197
-0.545555
-0.565916
-0.586979
-0.608354
-0.629575
-0.650134
-0.669534
-0.687335
-0.70321
-0.716982
-0.72864
-0.738343
-0.746418
-0.753331
-0.75967
-0.767845
-0.775166
-0.497896
-0.511936
-0.527077
-0.543261
-0.560357
-0.578165
-0.596407
-0.614739
-0.632766
-0.650075
-0.666276
-0.681046
-0.694168
-0.705562
-0.715297
-0.723602
-0.730845
-0.737495
-0.745895
-0.752699
-0.505343
-0.517024
-0.529609
-0.543063
-0.557298
-0.572176
-0.587498
-0.603009
-0.618407
-0.633362
-0.647548
-0.660677
-0.672534
-0.683012
-0.692128
-0.700041
-0.707035
-0.713469
-0.721614
-0.72726
-0.513588
-0.523235
-0.533599
-0.544655
-0.55634
-0.568551
-0.581142
-0.593921
-0.606657
-0.619094
-0.630969
-0.642044
-0.652134
-0.661134
-0.669043
-0.67598
-0.682166
-0.687859
-0.695273
-0.699142
-0.52267
-0.530522
-0.538915
-0.547823
-0.557194
-0.566945
-0.576962
-0.587097
-0.597172
-0.606988
-0.616344
-0.625053
-0.632973
-0.640025
-0.646215
-0.651647
-0.656505
-0.660962
-0.667192
-0.668726
-0.532645
-0.538879
-0.545484
-0.552427
-0.559659
-0.567105
-0.574671
-0.582235
-0.589658
-0.596786
-0.603469
-0.609573
-0.615002
-0.619718
-0.623754
-0.627226
-0.630297
-0.633078
-0.637724
-0.636464
-0.543599
-0.548344
-0.553289
-0.558396
-0.563608
-0.568853
-0.574045
-0.579082
-0.583849
-0.588232
-0.592121
-0.595432
-0.598121
-0.600197
-0.601736
-0.602881
-0.603796
-0.60455
-0.607291
-0.602916
-0.55571
-0.559032
-0.562381
-0.565707
-0.568948
-0.572034
-0.574884
-0.577408
-0.579515
-0.581115
-0.582135
-0.582532
-0.582308
-0.581522
-0.5803
-0.578826
-0.57728
-0.575713
-0.57628
-0.568586
-0.568924
-0.570887
-0.572701
-0.574314
-0.57566
-0.576665
-0.577246
-0.577313
-0.576776
-0.57556
-0.573612
-0.570921
-0.567534
-0.563568
-0.559213
-0.554718
-0.550301
-0.546031
-0.544066
-0.532838
-0.584393
-0.585077
-0.585446
-0.585392
-0.584814
-0.583611
-0.581689
-0.578958
-0.575346
-0.570801
-0.565312
-0.558922
-0.551753
-0.544013
-0.535996
-0.528056
-0.520493
-0.513439
-0.508726
-0.493732
-0.602341
-0.600655
-0.598289
-0.595293
-0.591605
-0.587159
-0.581897
-0.575766
-0.568724
-0.560753
-0.551884
-0.542216
-0.531943
-0.521359
-0.51086
-0.500898
-0.491856
-0.483976
-0.477793
-0.459627
)
;

boundaryField
{
    zeroGradientPlanes
    {
        type            zeroGradient;
    }
    inlet
    {
        type            zeroGradient;
    }
    plate
    {
        type            zeroGradient;
    }
    frontAndBack
    {
        type            empty;
    }
}


// ************************************************************************* //
