/*--------------------------------*- C++ -*----------------------------------*\
| =========                 |                                                 |
| \\      /  F ield         | OpenFOAM: The Open Source CFD Toolbox           |
|  \\    /   O peration     | Version:  v2012                                 |
|   \\  /    A nd           | Website:  www.openfoam.com                      |
|    \\/     M anipulation  |                                                 |
\*---------------------------------------------------------------------------*/
FoamFile
{
    version     2.0;
    format      ascii;
    class       volScalarField;
    location    "1.2";
    object      p;
}
// * * * * * * * * * * * * * * * * * * * * * * * * * * * * * * * * * * * * * //

dimensions      [0 2 -2 0 0 0 0];


internalField   nonuniform List<scalar> 
400
(
-1.49951e-06
-2.39515
-3.61173
-4.12149
-4.39226
-4.55831
-4.66583
-4.7407
-4.79673
-4.84092
-4.87713
-4.9077
-4.93422
-4.95779
-4.9793
-4.99944
-5.01877
-5.03793
-5.05709
-5.07035
-1.95691
-2.91632
-3.59202
-3.98942
-4.25469
-4.43989
-4.56996
-4.66422
-4.73543
-4.79124
-4.83639
-4.87399
-4.90613
-4.93431
-4.95963
-4.98291
-5.00475
-5.02603
-5.04781
-5.06363
-3.10384
-3.40385
-3.74006
-4.01759
-4.23459
-4.40076
-4.52673
-4.62322
-4.69869
-4.75907
-4.80849
-4.84987
-4.88531
-4.91634
-4.94413
-4.96955
-4.99325
-5.01634
-5.04057
-5.05857
-3.68108
-3.75803
-3.92886
-4.1133
-4.2752
-4.40976
-4.51944
-4.60838
-4.6809
-4.74069
-4.7907
-4.8332
-4.86997
-4.90236
-4.93146
-4.95813
-4.98303
-5.00743
-5.03342
-5.05283
-4.01176
-4.01291
-4.09759
-4.21564
-4.33186
-4.43684
-4.52847
-4.60687
-4.67346
-4.73012
-4.77865
-4.82066
-4.85747
-4.89021
-4.91981
-4.94704
-4.97256
-4.99766
-5.02458
-5.04451
-4.21828
-4.19646
-4.23627
-4.31048
-4.39252
-4.4728
-4.54739
-4.61445
-4.67369
-4.72568
-4.77131
-4.81156
-4.84735
-4.87952
-4.90883
-4.93593
-4.96142
-4.98655
-5.0135
-5.03302
-4.35485
-4.32976
-4.34747
-4.39422
-4.45185
-4.5125
-4.57211
-4.6282
-4.67959
-4.72606
-4.76784
-4.80539
-4.83927
-4.87006
-4.89834
-4.92463
-4.94941
-4.97387
-4.99999
-5.01821
-4.4512
-4.42905
-4.43623
-4.46606
-4.50668
-4.55229
-4.59941
-4.64557
-4.68932
-4.72998
-4.76736
-4.80156
-4.83286
-4.86162
-4.88822
-4.91306
-4.93651
-4.95964
-4.98413
-5.00026
-4.52339
-4.50535
-4.50762
-4.52701
-4.55588
-4.59019
-4.62722
-4.6648
-4.70148
-4.73642
-4.76919
-4.79967
-4.82792
-4.85411
-4.87849
-4.90133
-4.9229
-4.94411
-4.96631
-4.97971
-4.58006
-4.56577
-4.56581
-4.5787
-4.59948
-4.62539
-4.65439
-4.68474
-4.71511
-4.74465
-4.77284
-4.79942
-4.82432
-4.84757
-4.86932
-4.88971
-4.90892
-4.92773
-4.94712
-4.95731
-4.62618
-4.61493
-4.61404
-4.62282
-4.63796
-4.65763
-4.68032
-4.70465
-4.72951
-4.7541
-4.7779
-4.80058
-4.82198
-4.84206
-4.86087
-4.87848
-4.89498
-4.91105
-4.92725
-4.93393
-4.6648
-4.65592
-4.6547
-4.66082
-4.672
-4.68701
-4.70474
-4.72411
-4.74423
-4.76438
-4.78406
-4.80294
-4.82083
-4.83763
-4.85333
-4.86793
-4.88149
-4.89457
-4.90737
-4.91043
-4.69791
-4.69086
-4.68958
-4.69393
-4.70229
-4.71379
-4.72761
-4.74293
-4.75899
-4.77519
-4.79109
-4.80636
-4.8208
-4.8343
-4.84682
-4.85832
-4.8688
-4.87877
-4.88808
-4.88755
-4.72688
-4.72122
-4.72001
-4.72317
-4.72948
-4.73832
-4.74907
-4.76105
-4.77365
-4.78638
-4.79883
-4.81071
-4.82184
-4.8321
-4.84144
-4.8498
-4.85717
-4.86401
-4.86986
-4.86588
-4.75269
-4.74806
-4.74697
-4.74932
-4.75417
-4.76099
-4.7693
-4.77854
-4.78821
-4.79787
-4.80719
-4.81592
-4.82389
-4.83101
-4.83722
-4.84247
-4.84676
-4.85051
-4.85299
-4.84579
-4.77601
-4.77211
-4.77116
-4.77303
-4.77685
-4.78217
-4.78856
-4.79554
-4.8027
-4.80965
-4.81613
-4.82192
-4.82689
-4.83098
-4.83415
-4.83637
-4.83765
-4.83838
-4.83767
-4.82751
-4.79726
-4.79383
-4.79307
-4.79472
-4.7979
-4.80214
-4.80704
-4.81219
-4.81719
-4.82175
-4.82563
-4.82868
-4.83081
-4.83199
-4.83221
-4.83148
-4.82984
-4.8277
-4.82398
-4.81112
-4.81678
-4.81373
-4.81336
-4.81517
-4.81811
-4.82169
-4.82549
-4.82913
-4.83226
-4.83465
-4.8361
-4.83653
-4.83589
-4.83419
-4.83149
-4.82782
-4.82329
-4.81835
-4.81176
-4.7964
-4.83444
-4.83245
-4.83326
-4.83592
-4.83922
-4.84259
-4.84563
-4.84799
-4.84938
-4.8496
-4.84856
-4.84622
-4.8426
-4.83779
-4.8319
-4.82503
-4.81739
-4.80946
-4.79995
-4.78258
-4.84607
-4.84579
-4.84839
-4.85233
-4.85632
-4.8598
-4.86238
-4.86376
-4.86371
-4.8621
-4.85889
-4.85411
-4.84786
-4.84029
-4.83158
-4.8219
-4.81158
-4.80102
-4.78895
-4.77209
)
;

boundaryField
{
    movingWall
    {
        type            zeroGradient;
    }
    bottomWall
    {
        type            zeroGradient;
    }
    leftSide
    {
        type            zeroGradient;
    }
    rightSide
    {
        type            zeroGradient;
    }
    frontAndBack
    {
        type            empty;
    }
}


// ************************************************************************* //
