/*--------------------------------*- C++ -*----------------------------------*\
| =========                 |                                                 |
| \\      /  F ield         | OpenFOAM: The Open Source CFD Toolbox           |
|  \\    /   O peration     | Version:  v2012                                 |
|   \\  /    A nd           | Website:  www.openfoam.com                      |
|    \\/     M anipulation  |                                                 |
\*---------------------------------------------------------------------------*/
FoamFile
{
    version     2.0;
    format      ascii;
    class       volScalarField;
    location    "0.2";
    object      p;
}
// * * * * * * * * * * * * * * * * * * * * * * * * * * * * * * * * * * * * * //

dimensions      [0 2 -2 0 0 0 0];


internalField   nonuniform List<scalar> 
400
(
8.72482e-07
-2.39515
-3.61174
-4.1215
-4.39227
-4.55831
-4.66584
-4.74071
-4.79674
-4.84094
-4.87714
-4.90772
-4.93424
-4.95783
-4.97934
-4.99949
-5.01882
-5.03799
-5.05717
-5.07044
-1.95691
-2.91632
-3.59202
-3.98943
-4.25469
-4.4399
-4.56997
-4.66423
-4.73545
-4.79126
-4.83641
-4.87401
-4.90616
-4.93434
-4.95967
-4.98295
-5.00481
-5.02609
-5.04788
-5.06371
-3.10384
-3.40385
-3.74006
-4.01759
-4.2346
-4.40077
-4.52674
-4.62323
-4.6987
-4.75908
-4.80851
-4.84989
-4.88534
-4.91637
-4.94416
-4.96959
-4.9933
-5.0164
-5.04064
-5.05865
-3.68109
-3.75804
-3.92887
-4.1133
-4.27521
-4.40977
-4.51945
-4.60839
-4.68091
-4.74071
-4.79072
-4.83323
-4.87
-4.90239
-4.9315
-4.95817
-4.98308
-5.00748
-5.03348
-5.0529
-4.01176
-4.01292
-4.0976
-4.21565
-4.33187
-4.43685
-4.52848
-4.60688
-4.67348
-4.73013
-4.77867
-4.82068
-4.8575
-4.89024
-4.91984
-4.94708
-4.97261
-4.99771
-5.02465
-5.04459
-4.21829
-4.19647
-4.23628
-4.31049
-4.39253
-4.47281
-4.5474
-4.61446
-4.6737
-4.72569
-4.77133
-4.81158
-4.84737
-4.87955
-4.90886
-4.93597
-4.96146
-4.9866
-5.01356
-5.0331
-4.35485
-4.32977
-4.34748
-4.39423
-4.45186
-4.51251
-4.57212
-4.62821
-4.67961
-4.72607
-4.76785
-4.8054
-4.83929
-4.87008
-4.89837
-4.92466
-4.94945
-4.97392
-5.00005
-5.01828
-4.45121
-4.42906
-4.43624
-4.46607
-4.50669
-4.5523
-4.59942
-4.64558
-4.68933
-4.72999
-4.76737
-4.80158
-4.83288
-4.86164
-4.88824
-4.91309
-4.93655
-4.95968
-4.98419
-5.00033
-4.5234
-4.50536
-4.50763
-4.52702
-4.55589
-4.5902
-4.62723
-4.66481
-4.7015
-4.73643
-4.76921
-4.79969
-4.82794
-4.85413
-4.87852
-4.90136
-4.92293
-4.94415
-4.96636
-4.97977
-4.58007
-4.56578
-4.56582
-4.57871
-4.59948
-4.6254
-4.6544
-4.68475
-4.71512
-4.74466
-4.77285
-4.79944
-4.82434
-4.84759
-4.86934
-4.88973
-4.90894
-4.92777
-4.94717
-4.95736
-4.62619
-4.61494
-4.61405
-4.62282
-4.63797
-4.65764
-4.68033
-4.70466
-4.72952
-4.75411
-4.77791
-4.80059
-4.82199
-4.84208
-4.86089
-4.8785
-4.895
-4.91107
-4.92729
-4.93397
-4.6648
-4.65593
-4.65471
-4.66083
-4.67201
-4.68701
-4.70474
-4.72412
-4.74424
-4.76439
-4.78407
-4.80295
-4.82084
-4.83764
-4.85334
-4.86795
-4.88151
-4.89459
-4.9074
-4.91046
-4.69792
-4.69086
-4.68959
-4.69394
-4.7023
-4.7138
-4.72762
-4.74294
-4.759
-4.7752
-4.7911
-4.80637
-4.82081
-4.83431
-4.84683
-4.85833
-4.86882
-4.87879
-4.8881
-4.88758
-4.72689
-4.72123
-4.72002
-4.72317
-4.72949
-4.73833
-4.74907
-4.76105
-4.77366
-4.78639
-4.79883
-4.81072
-4.82185
-4.83211
-4.84144
-4.8498
-4.85718
-4.86401
-4.86987
-4.8659
-4.7527
-4.74807
-4.74697
-4.74933
-4.75418
-4.761
-4.76931
-4.77855
-4.78821
-4.79787
-4.80719
-4.81592
-4.82389
-4.83101
-4.83722
-4.84247
-4.84676
-4.8505
-4.853
-4.8458
-4.77602
-4.77212
-4.77117
-4.77304
-4.77686
-4.78217
-4.78856
-4.79555
-4.8027
-4.80965
-4.81613
-4.82192
-4.82689
-4.83098
-4.83415
-4.83636
-4.83764
-4.83837
-4.83766
-4.8275
-4.79727
-4.79384
-4.79308
-4.79473
-4.7979
-4.80215
-4.80705
-4.81219
-4.81719
-4.82175
-4.82563
-4.82868
-4.83081
-4.83198
-4.8322
-4.83147
-4.82982
-4.82768
-4.82396
-4.8111
-4.81679
-4.81374
-4.81337
-4.81517
-4.81812
-4.8217
-4.8255
-4.82913
-4.83226
-4.83464
-4.8361
-4.83652
-4.83588
-4.83418
-4.83147
-4.8278
-4.82327
-4.81832
-4.81173
-4.79637
-4.83445
-4.83245
-4.83327
-4.83593
-4.83922
-4.84259
-4.84564
-4.84799
-4.84937
-4.8496
-4.84855
-4.84621
-4.84259
-4.83778
-4.83188
-4.82501
-4.81736
-4.80942
-4.79991
-4.78254
-4.84608
-4.8458
-4.8484
-4.85234
-4.85633
-4.8598
-4.86238
-4.86376
-4.86371
-4.86209
-4.85888
-4.85409
-4.84784
-4.84027
-4.83155
-4.82187
-4.81154
-4.80098
-4.7889
-4.77204
)
;

boundaryField
{
    movingWall
    {
        type            zeroGradient;
    }
    bottomWall
    {
        type            zeroGradient;
    }
    leftSide
    {
        type            zeroGradient;
    }
    rightSide
    {
        type            zeroGradient;
    }
    frontAndBack
    {
        type            empty;
    }
}


// ************************************************************************* //
