/*--------------------------------*- C++ -*----------------------------------*\
| =========                 |                                                 |
| \\      /  F ield         | OpenFOAM: The Open Source CFD Toolbox           |
|  \\    /   O peration     | Version:  v2012                                 |
|   \\  /    A nd           | Website:  www.openfoam.com                      |
|    \\/     M anipulation  |                                                 |
\*---------------------------------------------------------------------------*/
FoamFile
{
    version     2.0;
    format      ascii;
    class       surfaceScalarField;
    location    "0.2";
    object      phi;
}
// * * * * * * * * * * * * * * * * * * * * * * * * * * * * * * * * * * * * * //

dimensions      [0 3 -1 0 0 0 0];
oriented        oriented;


internalField   nonuniform List<scalar> 
760
(
3.75282e-05
1.24718e-05
2.64817e-05
1.10465e-05
1.94611e-05
7.02059e-06
1.5052e-05
4.40911e-06
1.22071e-05
2.84492e-06
1.02983e-05
1.90881e-06
8.95596e-06
1.34232e-06
7.96766e-06
9.883e-07
7.21149e-06
7.56178e-07
6.61571e-06
5.9578e-07
6.13638e-06
4.79323e-07
5.74542e-06
3.90965e-07
5.42409e-06
3.21324e-07
5.15937e-06
2.64721e-07
4.9415e-06
2.17871e-07
4.76215e-06
1.79348e-07
4.61247e-06
1.49684e-07
4.47981e-06
1.32658e-07
4.34561e-06
1.34199e-07
1.4294e-07
5.14136e-05
1.10582e-05
4.73035e-05
1.51566e-05
4.13981e-05
1.2926e-05
3.58425e-05
9.96469e-06
3.12061e-05
7.48136e-06
2.74993e-05
5.61557e-06
2.45642e-05
4.27741e-06
2.22271e-05
3.32547e-06
2.03449e-05
2.63834e-06
1.88106e-05
2.13007e-06
1.75465e-05
1.74342e-06
1.64968e-05
1.4407e-06
1.5621e-05
1.19707e-06
1.48895e-05
9.96278e-07
1.42791e-05
8.28231e-07
1.37706e-05
6.87836e-07
1.33455e-05
5.74822e-07
1.29839e-05
4.94298e-07
1.26649e-05
4.53127e-07
4.42505e-07
5.28832e-05
8.17493e-06
5.34093e-05
1.46306e-05
5.11704e-05
1.51648e-05
4.7619e-05
1.35161e-05
4.37569e-05
1.13435e-05
4.00862e-05
9.28619e-06
3.68084e-05
7.55524e-06
3.39662e-05
6.1677e-06
3.15327e-05
5.07186e-06
2.94581e-05
4.20468e-06
2.76906e-05
3.51083e-06
2.61847e-05
2.94669e-06
2.49021e-05
2.4796e-06
2.38123e-05
2.08612e-06
2.28899e-05
1.75056e-06
2.21136e-05
1.4642e-06
2.14632e-05
1.22522e-06
2.09186e-05
1.03886e-06
2.04576e-05
9.14136e-07
8.51695e-07
5.23444e-05
5.83051e-06
5.44238e-05
1.25512e-05
5.46422e-05
1.49464e-05
5.32949e-05
1.48635e-05
5.10138e-05
1.36246e-05
4.83172e-05
1.19828e-05
4.55464e-05
1.0326e-05
4.28933e-05
8.82082e-06
4.04492e-05
7.51601e-06
3.82469e-05
6.40698e-06
3.62889e-05
5.4688e-06
3.45637e-05
4.67191e-06
3.30544e-05
3.98888e-06
3.17433e-05
3.39717e-06
3.06137e-05
2.88022e-06
2.96497e-05
2.42823e-06
2.88358e-05
2.03903e-06
2.81556e-05
1.71905e-06
2.75872e-05
1.48258e-06
1.34732e-06
5.16292e-05
4.20129e-06
5.38894e-05
1.0291e-05
5.52766e-05
1.35592e-05
5.54685e-05
1.46716e-05
5.46519e-05
1.44412e-05
5.31458e-05
1.34889e-05
5.12481e-05
1.22237e-05
4.91841e-05
1.08848e-05
4.7104e-05
9.59605e-06
4.50999e-05
8.41108e-06
4.32236e-05
7.34516e-06
4.15012e-05
6.39425e-06
3.99439e-05
5.54618e-06
3.85541e-05
4.78702e-06
3.73295e-05
4.10485e-06
3.62652e-05
3.49245e-06
3.53545e-05
2.94976e-06
3.4587e-05
2.48655e-06
3.39442e-05
2.12541e-06
1.90646e-06
5.1086e-05
3.11529e-06
5.30525e-05
8.32452e-06
5.48091e-05
1.18026e-05
5.58484e-05
1.36322e-05
5.60746e-05
1.4215e-05
5.55971e-05
1.39664e-05
5.45982e-05
1.32227e-05
5.32592e-05
1.22238e-05
5.17308e-05
1.11245e-05
5.01256e-05
1.00162e-05
4.85232e-05
8.9475e-06
4.69773e-05
7.9402e-06
4.55226e-05
7.00088e-06
4.41812e-05
6.12842e-06
4.29666e-05
5.31941e-06
4.18867e-05
4.5724e-06
4.09445e-05
3.89193e-06
4.01378e-05
3.29328e-06
3.94537e-05
2.8095e-06
2.50552e-06
5.07292e-05
2.38613e-06
5.23084e-05
6.74531e-06
5.40316e-05
1.00794e-05
5.54228e-05
1.2241e-05
5.6266e-05
1.33718e-05
5.65279e-05
1.37045e-05
5.62768e-05
1.34737e-05
5.56231e-05
1.28775e-05
5.46822e-05
1.20654e-05
5.35572e-05
1.11413e-05
5.23321e-05
1.01726e-05
5.10723e-05
9.20005e-06
4.98266e-05
8.24654e-06
4.86312e-05
7.3238e-06
4.75124e-05
6.43821e-06
4.64891e-05
5.59574e-06
4.55738e-05
4.80718e-06
4.47723e-05
4.09479e-06
4.40788e-05
3.50301e-06
3.12139e-06
5.05032e-05
1.88289e-06
5.17341e-05
5.51448e-06
5.32605e-05
8.55293e-06
5.47095e-05
1.07921e-05
5.58463e-05
1.2235e-05
5.65652e-05
1.29856e-05
5.68541e-05
1.31848e-05
5.67566e-05
1.2975e-05
5.63425e-05
1.24795e-05
5.56884e-05
1.17954e-05
5.48665e-05
1.09945e-05
5.39399e-05
1.01266e-05
5.29613e-05
9.22515e-06
5.19732e-05
8.31189e-06
5.10095e-05
7.40192e-06
5.00967e-05
6.50857e-06
4.92545e-05
5.64933e-06
4.84955e-05
4.85387e-06
4.78207e-05
4.17775e-06
3.73282e-06
5.03585e-05
1.52438e-06
5.13101e-05
4.56291e-06
5.25982e-05
7.26485e-06
5.3955e-05
9.43524e-06
5.51741e-05
1.10159e-05
5.61278e-05
1.20318e-05
5.67589e-05
1.25537e-05
5.70626e-05
1.26713e-05
5.70675e-05
1.24746e-05
5.68195e-05
1.20434e-05
5.63712e-05
1.14428e-05
5.57747e-05
1.07231e-05
5.50779e-05
9.92192e-06
5.4323e-05
9.06682e-06
5.35459e-05
8.17906e-06
5.27764e-05
7.27801e-06
5.20385e-05
6.38722e-06
5.13492e-05
5.54319e-06
5.07156e-05
4.81134e-06
4.32182e-06
5.02629e-05
1.26152e-06
5.09998e-05
3.82598e-06
5.20608e-05
6.20385e-06
5.32627e-05
8.23332e-06
5.44416e-05
9.83704e-06
5.54755e-05
1.09979e-05
5.62894e-05
1.17398e-05
5.68497e-05
1.2111e-05
5.71544e-05
1.217e-05
5.72228e-05
1.1975e-05
5.70864e-05
1.15791e-05
5.67826e-05
1.10269e-05
5.63497e-05
1.03548e-05
5.58245e-05
9.59205e-06
5.52405e-05
8.76307e-06
5.46272e-05
7.89133e-06
5.40094e-05
7.00501e-06
5.34063e-05
6.14626e-06
5.28294e-05
5.38826e-06
4.87453e-06
5.01973e-05
1.06417e-06
5.07714e-05
3.25195e-06
5.16352e-05
5.34004e-06
5.26667e-05
7.20179e-06
5.37429e-05
8.76083e-06
5.47597e-05
9.98114e-06
5.56408e-05
1.08587e-05
5.63395e-05
1.14124e-05
5.68348e-05
1.16746e-05
5.71261e-05
1.16837e-05
5.7227e-05
1.14782e-05
5.716e-05
1.10939e-05
5.69521e-05
1.05626e-05
5.66323e-05
9.91188e-06
5.62287e-05
9.1667e-06
5.57675e-05
8.35249e-06
5.52721e-05
7.50046e-06
5.47616e-05
6.65675e-06
5.42499e-05
5.89994e-06
5.38155e-06
5.0151e-05
9.13209e-07
5.06014e-05
2.80155e-06
5.13012e-05
4.64023e-06
5.217e-05
6.33296e-06
5.31184e-05
7.81247e-06
5.40626e-05
9.03691e-06
5.4934e-05
9.98731e-06
5.56829e-05
1.06635e-05
5.6279e-05
1.10786e-05
5.67088e-05
1.12538e-05
5.69727e-05
1.12143e-05
5.70806e-05
1.09861e-05
5.7049e-05
1.05942e-05
5.68981e-05
1.00628e-05
5.66494e-05
9.41534e-06
5.63245e-05
8.67745e-06
5.59432e-05
7.88177e-06
5.55232e-05
7.07676e-06
5.50792e-05
6.34392e-06
5.8377e-06
5.01173e-05
7.95933e-07
5.04736e-05
2.44524e-06
5.10401e-05
4.07367e-06
5.17639e-05
5.60922e-06
5.25806e-05
6.99575e-06
5.34254e-05
8.19214e-06
5.42402e-05
9.17253e-06
5.49784e-05
9.92521e-06
5.5607e-05
1.04499e-05
5.6106e-05
1.07548e-05
5.64669e-05
1.08535e-05
5.66905e-05
1.07625e-05
5.67845e-05
1.05002e-05
5.67613e-05
1.0086e-05
5.66358e-05
9.54084e-06
5.6424e-05
8.88922e-06
5.61418e-05
8.16396e-06
5.58043e-05
7.41432e-06
5.54257e-05
6.72249e-06
6.2414e-06
5.00925e-05
7.03407e-07
5.03773e-05
2.16043e-06
5.08374e-05
3.61357e-06
5.1437e-05
5.00968e-06
5.21297e-05
6.30302e-06
5.2866e-05
7.45579e-06
5.35989e-05
8.43969e-06
5.42877e-05
9.23645e-06
5.49006e-05
9.83699e-06
5.54156e-05
1.02399e-05
5.58195e-05
1.04495e-05
5.61074e-05
1.04746e-05
5.62804e-05
1.03272e-05
5.63447e-05
1.00218e-05
5.63092e-05
9.57627e-06
5.6185e-05
9.01343e-06
5.59837e-05
8.3653e-06
5.57172e-05
7.68082e-06
5.53986e-05
7.04101e-06
6.59377e-06
5.00746e-05
6.28819e-07
5.03059e-05
1.92915e-06
5.06826e-05
3.23689e-06
5.11789e-05
4.51331e-06
5.17609e-05
5.72109e-06
5.23906e-05
6.82602e-06
5.30309e-05
7.7994e-06
5.3648e-05
8.61934e-06
5.42139e-05
9.27112e-06
5.47072e-05
9.74659e-06
5.51133e-05
1.00433e-05
5.54242e-05
1.01638e-05
5.5637e-05
1.01144e-05
5.57531e-05
9.90564e-06
5.57772e-05
9.55216e-06
5.57158e-05
9.07482e-06
5.55767e-05
8.50441e-06
5.53688e-05
7.88873e-06
5.51035e-05
7.30633e-06
6.89768e-06
5.00624e-05
5.66376e-07
5.02555e-05
1.73614e-06
5.05688e-05
2.92352e-06
5.09819e-05
4.10019e-06
5.14685e-05
5.23451e-06
5.19997e-05
6.29488e-06
5.25464e-05
7.25264e-06
5.30819e-05
8.0839e-06
5.35827e-05
8.77031e-06
5.40301e-05
9.29919e-06
5.44102e-05
9.66324e-06
5.47138e-05
9.86013e-06
5.49361e-05
9.89212e-06
5.50756e-05
9.76607e-06
5.51338e-05
9.49398e-06
5.51139e-05
9.09479e-06
5.50203e-05
8.59795e-06
5.48593e-05
8.04971e-06
5.46402e-05
7.52549e-06
7.15702e-06
5.00561e-05
5.10304e-07
5.02247e-05
1.56747e-06
5.04926e-05
2.65565e-06
5.08407e-05
3.75211e-06
5.12478e-05
4.82744e-06
5.16916e-05
5.85101e-06
5.21503e-05
6.79398e-06
5.26031e-05
7.63111e-06
5.30317e-05
8.34174e-06
5.34206e-05
8.91021e-06
5.3758e-05
9.3259e-06
5.4035e-05
9.58309e-06
5.42462e-05
9.68092e-06
5.43888e-05
9.62351e-06
5.4462e-05
9.42074e-06
5.44669e-05
9.08994e-06
5.44055e-05
8.65929e-06
5.42818e-05
8.17348e-06
5.41025e-05
7.70475e-06
7.37596e-06
5.00573e-05
4.53025e-07
5.02148e-05
1.40996e-06
5.04525e-05
2.41796e-06
5.07515e-05
3.45312e-06
5.10943e-05
4.48458e-06
5.14643e-05
5.48107e-06
5.18451e-05
6.41315e-06
5.22216e-05
7.25462e-06
5.258e-05
7.98336e-06
5.29084e-05
8.58183e-06
5.3197e-05
9.03721e-06
5.34386e-05
9.34153e-06
5.36278e-05
9.49175e-06
5.37613e-05
9.49003e-06
5.38374e-05
9.34461e-06
5.38558e-05
9.07157e-06
5.3817e-05
8.698e-06
5.37234e-05
8.26717e-06
5.3579e-05
7.84913e-06
7.55822e-06
5.00693e-05
3.83677e-07
5.02265e-05
1.25283e-06
5.04455e-05
2.19893e-06
5.07089e-05
3.18977e-06
5.10027e-05
4.19069e-06
5.13148e-05
5.16899e-06
5.16334e-05
6.09455e-06
5.19475e-05
6.94053e-06
5.22469e-05
7.68392e-06
5.25228e-05
8.30596e-06
5.27675e-05
8.79249e-06
5.2975e-05
9.13405e-06
5.31406e-05
9.32612e-06
5.32612e-05
9.36949e-06
5.33346e-05
9.27115e-06
5.33601e-05
9.04615e-06
5.33374e-05
8.72063e-06
5.32686e-05
8.33599e-06
5.31575e-05
7.96019e-06
7.71022e-06
5.00844e-05
5.02476e-05
5.04564e-05
5.06983e-05
5.09628e-05
5.12403e-05
5.15216e-05
5.1798e-05
5.20616e-05
5.2305e-05
5.25222e-05
5.27078e-05
5.28578e-05
5.29691e-05
5.30397e-05
5.30687e-05
5.30565e-05
5.3004e-05
5.29134e-05
)
;

boundaryField
{
    movingWall
    {
        type            calculated;
        value           nonuniform List<scalar> 
20
(
2.99294e-07
1.08956e-06
1.99019e-06
2.94788e-06
3.92615e-06
4.89148e-06
5.81326e-06
6.66411e-06
7.42038e-06
8.06251e-06
8.57535e-06
8.94843e-06
9.17612e-06
9.25817e-06
9.20054e-06
9.01716e-06
8.73282e-06
8.38849e-06
8.05082e-06
7.8277e-06
)
;
    }
    bottomWall
    {
        type            calculated;
        value           uniform 0;
    }
    leftSide
    {
        type            calculated;
        value           nonuniform List<scalar> 
20
(
-5e-05
-5e-05
-5e-05
-5e-05
-5e-05
-5e-05
-5e-05
-5e-05
-5e-05
-5e-05
-5e-05
-5e-05
-5e-05
-5e-05
-5e-05
-5e-05
-5e-05
-5e-05
-5e-05
-5e-05
)
;
    }
    rightSide
    {
        type            calculated;
        value           nonuniform List<scalar> 
20
(
4.20267e-06
1.23654e-05
2.00484e-05
2.70916e-05
3.3385e-05
3.88546e-05
4.3463e-05
4.72093e-05
5.01266e-05
5.22767e-05
5.37429e-05
5.4623e-05
5.5022e-05
5.50463e-05
5.47996e-05
5.43808e-05
5.38836e-05
5.33967e-05
5.30055e-05
5.27959e-05
)
;
    }
    frontAndBack
    {
        type            empty;
        value           nonuniform List<scalar> 0();
    }
}


// ************************************************************************* //
