/*--------------------------------*- C++ -*----------------------------------*\
| =========                 |                                                 |
| \\      /  F ield         | OpenFOAM: The Open Source CFD Toolbox           |
|  \\    /   O peration     | Version:  v2012                                 |
|   \\  /    A nd           | Website:  www.openfoam.com                      |
|    \\/     M anipulation  |                                                 |
\*---------------------------------------------------------------------------*/
FoamFile
{
    version     2.0;
    format      ascii;
    class       volVectorField;
    location    "0.2";
    object      U;
}
// * * * * * * * * * * * * * * * * * * * * * * * * * * * * * * * * * * * * * //

dimensions      [0 1 -1 0 0 0 0];


internalField   nonuniform List<vector> 
400
(
(0.725865 0.132329 0)
(0.621606 0.125312 0)
(0.461197 0.076894 0)
(0.340569 0.0440989 0)
(0.268217 0.025672 0)
(0.222375 0.0155941 0)
(0.190849 0.0100591 0)
(0.168081 0.00692164 0)
(0.150975 0.00504069 0)
(0.137676 0.00383432 0)
(0.12707 0.00300697 0)
(0.118464 0.00240439 0)
(0.111409 0.00194246 0)
(0.105598 0.00157392 0)
(0.100811 0.00127352 0)
(0.0968768 0.00103272 0)
(0.0936415 0.000862308 0)
(0.0908659 0.00080637 0)
(0.0880313 0.000922187 0)
(0.0852756 0.00110075 0)
(0.994946 0.25173 0)
(0.998021 0.288321 0)
(0.894458 0.215242 0)
(0.770595 0.148674 0)
(0.66636 0.102146 0)
(0.58344 0.071476 0)
(0.517741 0.0516011 0)
(0.465625 0.0385684 0)
(0.423935 0.0297463 0)
(0.390158 0.0235318 0)
(0.36246 0.0189722 0)
(0.339532 0.0154954 0)
(0.320432 0.0127502 0)
(0.304478 0.0105194 0)
(0.291152 0.00867465 0)
(0.28005 0.00715686 0)
(0.27083 0.00597557 0)
(0.263057 0.00522739 0)
(0.255893 0.0050345 0)
(0.249812 0.00516804 0)
(1.02785 0.202011 0)
(1.07524 0.311722 0)
(1.05521 0.293874 0)
(0.991493 0.24413 0)
(0.913875 0.193565 0)
(0.837063 0.151201 0)
(0.767058 0.118453 0)
(0.705807 0.0938691 0)
(0.653211 0.0754375 0)
(0.608354 0.061439 0)
(0.570151 0.0505947 0)
(0.537606 0.0419982 0)
(0.509877 0.0350209 0)
(0.486281 0.0292362 0)
(0.466265 0.0243709 0)
(0.449374 0.0202802 0)
(0.435238 0.0169408 0)
(0.423398 0.0144545 0)
(0.412886 0.0129681 0)
(0.404384 0.0123409 0)
(1.02212 0.140304 0)
(1.07373 0.275629 0)
(1.09821 0.308919 0)
(1.08522 0.29271 0)
(1.04627 0.257386 0)
(0.994436 0.21837 0)
(0.938512 0.182532 0)
(0.883614 0.152037 0)
(0.83235 0.126899 0)
(0.7858 0.106374 0)
(0.744217 0.0895659 0)
(0.707449 0.0756613 0)
(0.675183 0.063998 0)
(0.64706 0.0540735 0)
(0.622727 0.0455372 0)
(0.601862 0.0381866 0)
(0.584202 0.0319712 0)
(0.569364 0.0269986 0)
(0.556351 0.023487 0)
(0.54603 0.021578 0)
(1.0139 0.0987324 0)
(1.05636 0.228166 0)
(1.09608 0.288313 0)
(1.11278 0.300945 0)
(1.10537 0.286844 0)
(1.08057 0.260366 0)
(1.04526 0.230106 0)
(1.00475 0.200531 0)
(0.96273 0.173573 0)
(0.921544 0.1498 0)
(0.882552 0.129121 0)
(0.846474 0.111173 0)
(0.813645 0.0955281 0)
(0.784171 0.0817907 0)
(0.75804 0.0696513 0)
(0.735178 0.0589212 0)
(0.715512 0.0495645 0)
(0.698808 0.0417323 0)
(0.684122 0.0357811 0)
(0.672536 0.0322679 0)
(1.00827 0.0718962 0)
(1.04002 0.184789 0)
(1.08038 0.254216 0)
(1.11032 0.285691 0)
(1.12302 0.290471 0)
(1.11972 0.278872 0)
(1.10405 0.258587 0)
(1.07986 0.23468 0)
(1.05055 0.210145 0)
(1.01874 0.186562 0)
(0.986343 0.164634 0)
(0.954645 0.144564 0)
(0.9245 0.126298 0)
(0.896452 0.109676 0)
(0.870838 0.0945312 0)
(0.847864 0.0807658 0)
(0.827683 0.0684135 0)
(0.810235 0.0577162 0)
(0.794698 0.0492234 0)
(0.782413 0.0439808 0)
(1.00498 0.0541303 0)
(1.02804 0.149207 0)
(1.06344 0.218204 0)
(1.09669 0.259549 0)
(1.11973 0.277933 0)
(1.13066 0.279555 0)
(1.1303 0.270117 0)
(1.1207 0.254112 0)
(1.10421 0.23472 0)
(1.08309 0.214007 0)
(1.05922 0.193212 0)
(1.0341 0.173008 0)
(1.00883 0.153715 0)
(0.984269 0.135448 0)
(0.961014 0.118238 0)
(0.939514 0.102126 0)
(0.920124 0.0872615 0)
(0.902955 0.0740156 0)
(0.887341 0.0631624 0)
(0.874914 0.0562567 0)
(1.00313 0.0420782 0)
(1.01988 0.121294 0)
(1.04906 0.185287 0)
(1.08062 0.230154 0)
(1.1074 0.256868 0)
(1.12623 0.268504 0)
(1.13622 0.268705 0)
(1.13785 0.260877 0)
(1.13237 0.247808 0)
(1.12132 0.231581 0)
(1.10622 0.213648 0)
(1.08845 0.194968 0)
(1.06917 0.176133 0)
(1.04931 0.157499 0)
(1.02964 0.139293 0)
(1.01076 0.121711 0)
(0.993172 0.105037 0)
(0.977116 0.0897924 0)
(0.962094 0.0769817 0)
(0.950033 0.0686405 0)
(1.00206 0.0336494 0)
(1.0144 0.0997283 0)
(1.03781 0.157092 0)
(1.06564 0.201632 0)
(1.0923 0.232534 0)
(1.11449 0.250867 0)
(1.13049 0.258616 0)
(1.13978 0.258051 0)
(1.14268 0.251309 0)
(1.14 0.24019 0)
(1.13277 0.226099 0)
(1.12208 0.210078 0)
(1.10892 0.192866 0)
(1.09421 0.174978 0)
(1.07873 0.156793 0)
(1.06313 0.138647 0)
(1.04799 0.120958 0)
(1.03364 0.10439 0)
(1.01972 0.0901653 0)
(1.00845 0.0807316 0)
(1.00143 0.0275621 0)
(1.01066 0.0830773 0)
(1.02924 0.133703 0)
(1.05288 0.175882 0)
(1.07746 0.208133 0)
(1.10008 0.230392 0)
(1.11883 0.243494 0)
(1.13266 0.248755 0)
(1.14127 0.247634 0)
(1.14487 0.241512 0)
(1.14402 0.231587 0)
(1.13943 0.218831 0)
(1.13188 0.204006 0)
(1.12212 0.187699 0)
(1.11087 0.170381 0)
(1.09876 0.152492 0)
(1.08637 0.134557 0)
(1.07406 0.117371 0)
(1.06158 0.102331 0)
(1.0514 0.0922083 0)
(1.00103 0.023044 0)
(1.00804 0.070155 0)
(1.02277 0.114601 0)
(1.04243 0.153542 0)
(1.06412 0.18539 0)
(1.08551 0.20953 0)
(1.1048 0.226082 0)
(1.12077 0.235659 0)
(1.13276 0.239136 0)
(1.1406 0.237464 0)
(1.14443 0.231558 0)
(1.14464 0.222233 0)
(1.14175 0.210182 0)
(1.13633 0.195986 0)
(1.12896 0.180153 0)
(1.12019 0.163179 0)
(1.11055 0.145669 0)
(1.10037 0.128513 0)
(1.08949 0.113242 0)
(1.0806 0.102839 0)
(1.00077 0.0196179 0)
(1.00617 0.0600552 0)
(1.01786 0.0991117 0)
(1.03404 0.134606 0)
(1.05268 0.165087 0)
(1.07199 0.189733 0)
(1.09045 0.208264 0)
(1.10686 0.220823 0)
(1.12042 0.227832 0)
(1.13071 0.229867 0)
(1.13762 0.227555 0)
(1.14127 0.221515 0)
(1.14194 0.212319 0)
(1.14001 0.200491 0)
(1.13591 0.186524 0)
(1.13007 0.170935 0)
(1.12294 0.154371 0)
(1.11479 0.137786 0)
(1.10554 0.122793 0)
(1.09801 0.11248 0)
(1.00058 0.0169757 0)
(1.00481 0.0520994 0)
(1.01413 0.0865802 0)
(1.02738 0.118775 0)
(1.04312 0.147453 0)
(1.06005 0.171765 0)
(1.07691 0.191235 0)
(1.09265 0.205713 0)
(1.10645 0.215302 0)
(1.1178 0.220275 0)
(1.12642 0.221008 0)
(1.13224 0.21792 0)
(1.13537 0.211446 0)
(1.13601 0.202022 0)
(1.13444 0.190095 0)
(1.13099 0.176174 0)
(1.126 0.160916 0)
(1.11966 0.145306 0)
(1.11193 0.130993 0)
(1.10576 0.121072 0)
(1.00045 0.0149077 0)
(1.0038 0.0457761 0)
(1.01129 0.0764284 0)
(1.02213 0.105644 0)
(1.03531 0.132414 0)
(1.04984 0.155944 0)
(1.06476 0.175679 0)
(1.07916 0.1913 0)
(1.09232 0.202695 0)
(1.10368 0.209914 0)
(1.11292 0.213125 0)
(1.11985 0.212574 0)
(1.12444 0.208558 0)
(1.12677 0.201418 0)
(1.12701 0.19154 0)
(1.12536 0.179401 0)
(1.12207 0.165652 0)
(1.11725 0.151281 0)
(1.11089 0.137926 0)
(1.10598 0.128614 0)
(1.00036 0.0132605 0)
(1.00306 0.0406866 0)
(1.00917 0.0681587 0)
(1.01808 0.0947818 0)
(1.02905 0.119738 0)
(1.04135 0.14231 0)
(1.05424 0.161923 0)
(1.06697 0.178166 0)
(1.07893 0.190788 0)
(1.08961 0.19968 0)
(1.09866 0.204852 0)
(1.10586 0.206408 0)
(1.1111 0.204525 0)
(1.11437 0.199451 0)
(1.11575 0.19151 0)
(1.11534 0.181138 0)
(1.11332 0.168964 0)
(1.10971 0.155959 0)
(1.10452 0.143725 0)
(1.10078 0.135153 0)
(1.0003 0.0119127 0)
(1.00256 0.0365078 0)
(1.00765 0.0613458 0)
(1.01505 0.0857778 0)
(1.0242 0.109129 0)
(1.03452 0.13075 0)
(1.04544 0.150066 0)
(1.05639 0.166616 0)
(1.06686 0.180061 0)
(1.07643 0.190185 0)
(1.08476 0.19688 0)
(1.09164 0.20014 0)
(1.09691 0.200048 0)
(1.10053 0.196772 0)
(1.10249 0.190575 0)
(1.10286 0.181855 0)
(1.10172 0.171214 0)
(1.09904 0.159593 0)
(1.09484 0.148534 0)
(1.09214 0.140761 0)
(1.00028 0.0107582 0)
(1.00229 0.0329701 0)
(1.00668 0.0556375 0)
(1.01297 0.0782782 0)
(1.02063 0.100301 0)
(1.02925 0.121094 0)
(1.03839 0.140085 0)
(1.0476 0.156781 0)
(1.0565 0.170787 0)
(1.06475 0.181813 0)
(1.07207 0.189675 0)
(1.07825 0.194285 0)
(1.08315 0.195651 0)
(1.0867 0.193881 0)
(1.08885 0.189189 0)
(1.08963 0.181938 0)
(1.08907 0.172701 0)
(1.08708 0.162389 0)
(1.08371 0.152476 0)
(1.08194 0.145503 0)
(1.00032 0.00964833 0)
(1.00228 0.0297682 0)
(1.00628 0.0506646 0)
(1.01176 0.0719033 0)
(1.01827 0.0929041 0)
(1.02548 0.113057 0)
(1.03307 0.131782 0)
(1.04072 0.148565 0)
(1.04813 0.162974 0)
(1.05506 0.174674 0)
(1.06127 0.183425 0)
(1.06661 0.189087 0)
(1.07094 0.191616 0)
(1.07418 0.191073 0)
(1.07628 0.187636 0)
(1.07723 0.181638 0)
(1.07703 0.173632 0)
(1.07557 0.164495 0)
(1.07291 0.155647 0)
(1.07196 0.149476 0)
(1.00045 0.00827355 0)
(1.00259 0.0263688 0)
(1.00641 0.0457802 0)
(1.01134 0.0659306 0)
(1.01698 0.0861735 0)
(1.0231 0.105871 0)
(1.02947 0.124426 0)
(1.03585 0.141307 0)
(1.04204 0.15606 0)
(1.04783 0.168317 0)
(1.05308 0.177806 0)
(1.05763 0.184346 0)
(1.06138 0.187859 0)
(1.06425 0.188371 0)
(1.0662 0.186031 0)
(1.0672 0.181148 0)
(1.06723 0.174253 0)
(1.06618 0.166191 0)
(1.06417 0.158343 0)
(1.06394 0.153038 0)
(1.00062 0.00668817 0)
(1.00301 0.0229976 0)
(1.00677 0.0412478 0)
(1.01138 0.0606013 0)
(1.01651 0.0803189 0)
(1.02198 0.0997275 0)
(1.02761 0.118214 0)
(1.03323 0.135234 0)
(1.03868 0.150314 0)
(1.04378 0.163068 0)
(1.04842 0.173196 0)
(1.05247 0.180494 0)
(1.05585 0.184855 0)
(1.05848 0.186278 0)
(1.0603 0.184888 0)
(1.06131 0.180973 0)
(1.06147 0.175037 0)
(1.06068 0.167901 0)
(1.05921 0.160903 0)
(1.05952 0.156219 0)
)
;

boundaryField
{
    movingWall
    {
        type            zeroGradient;
    }
    bottomWall
    {
        type            noSlip;
    }
    leftSide
    {
        type            fixedValue;
        value           uniform (1 0 0);
    }
    rightSide
    {
        type            zeroGradient;
    }
    frontAndBack
    {
        type            empty;
    }
}


// ************************************************************************* //
