/*--------------------------------*- C++ -*----------------------------------*\
| =========                 |                                                 |
| \\      /  F ield         | OpenFOAM: The Open Source CFD Toolbox           |
|  \\    /   O peration     | Version:  v2012                                 |
|   \\  /    A nd           | Website:  www.openfoam.com                      |
|    \\/     M anipulation  |                                                 |
\*---------------------------------------------------------------------------*/
FoamFile
{
    version     2.0;
    format      ascii;
    class       volScalarField;
    location    "0.3";
    object      p;
}
// * * * * * * * * * * * * * * * * * * * * * * * * * * * * * * * * * * * * * //

dimensions      [0 2 -2 0 0 0 0];


internalField   nonuniform List<scalar> 
800
(
-5.91359e-07
0.00606788
0.0191458
0.0345009
0.0508703
0.0681473
0.0863713
0.10572
0.126537
0.149331
0.174792
0.203794
0.237417
0.276905
0.322981
0.374362
0.431728
0.517533
0.655749
0.609334
-0.0140018
-0.0106361
-0.00011404
0.0126391
0.0262311
0.0403292
0.0547078
0.0692158
0.0837123
0.0979591
0.111484
0.123399
0.132205
0.13562
0.130327
0.111599
0.0744867
0.0185714
-0.0550802
-0.17396
-0.0353891
-0.0346945
-0.0271759
-0.0174961
-0.00719477
0.00316813
0.0131139
0.0221859
0.0298561
0.0354173
0.0378979
0.0360105
0.0281681
0.012594
-0.0125024
-0.0487257
-0.0971846
-0.158308
-0.232744
-0.321268
-0.059141
-0.0596159
-0.0542769
-0.0471546
-0.0397504
-0.0327456
-0.0267681
-0.022443
-0.020466
-0.0216645
-0.027014
-0.0376024
-0.0545384
-0.0788102
-0.111116
-0.151682
-0.200102
-0.255371
-0.31617
-0.380544
-0.0845529
-0.0853733
-0.0817106
-0.0768326
-0.0720911
-0.0682061
-0.0658619
-0.0657344
-0.0685314
-0.0750129
-0.0859643
-0.102126
-0.124087
-0.152161
-0.186271
-0.225865
-0.269901
-0.316938
-0.365326
-0.413301
-0.111333
-0.112184
-0.109932
-0.107076
-0.104772
-0.103714
-0.104565
-0.107957
-0.114502
-0.124785
-0.139318
-0.158466
-0.182365
-0.21085
-0.243418
-0.279244
-0.317246
-0.356206
-0.394909
-0.432239
-0.139021
-0.139744
-0.138681
-0.137605
-0.137448
-0.138832
-0.142337
-0.148486
-0.157744
-0.170486
-0.186959
-0.20723
-0.231135
-0.258269
-0.287992
-0.319491
-0.351853
-0.384167
-0.415612
-0.44551
-0.167189
-0.16769
-0.167615
-0.168073
-0.169755
-0.173174
-0.178791
-0.186992
-0.198075
-0.212226
-0.22948
-0.249701
-0.272568
-0.297587
-0.32413
-0.351496
-0.378976
-0.405922
-0.431798
-0.456196
-0.195499
-0.195728
-0.196477
-0.198241
-0.201467
-0.206538
-0.213778
-0.223427
-0.235632
-0.250418
-0.267674
-0.287147
-0.30845
-0.331092
-0.35452
-0.378171
-0.40152
-0.42412
-0.445626
-0.465793
-0.223676
-0.223618
-0.225057
-0.227927
-0.232433
-0.238818
-0.247263
-0.257873
-0.270662
-0.285539
-0.3023
-0.320637
-0.340158
-0.36042
-0.380967
-0.401365
-0.421236
-0.440278
-0.458271
-0.475073
-0.251494
-0.251149
-0.253176
-0.256988
-0.262552
-0.269969
-0.279284
-0.290479
-0.303465
-0.31807
-0.334041
-0.351058
-0.368758
-0.386763
-0.404712
-0.422283
-0.439209
-0.455292
-0.470397
-0.484446
-0.278756
-0.278138
-0.280687
-0.28532
-0.291769
-0.3
-0.30993
-0.32144
-0.334361
-0.348472
-0.363501
-0.379141
-0.395075
-0.410996
-0.426628
-0.441737
-0.456144
-0.469725
-0.482404
-0.494146
-0.305288
-0.304424
-0.307469
-0.312848
-0.320066
-0.328958
-0.339329
-0.350974
-0.363672
-0.377171
-0.391201
-0.405487
-0.419761
-0.433784
-0.447351
-0.460305
-0.472532
-0.483962
-0.494562
-0.504328
-0.330922
-0.329862
-0.333425
-0.33953
-0.347458
-0.356922
-0.367632
-0.379314
-0.391709
-0.404556
-0.417599
-0.430599
-0.443342
-0.455647
-0.467375
-0.478427
-0.488741
-0.49829
-0.507074
-0.515111
-0.355473
-0.354305
-0.358462
-0.365331
-0.373971
-0.383985
-0.395
-0.406692
-0.418774
-0.43099
-0.443105
-0.454919
-0.466267
-0.477025
-0.487107
-0.496463
-0.505077
-0.512954
-0.52012
-0.526613
-0.378709
-0.377574
-0.382462
-0.39019
-0.399598
-0.410196
-0.421544
-0.43328
-0.445106
-0.456771
-0.468066
-0.478827
-0.488934
-0.498311
-0.50692
-0.514754
-0.521833
-0.528195
-0.533889
-0.538972
-0.400389
-0.399567
-0.405409
-0.414145
-0.424417
-0.435661
-0.447395
-0.459234
-0.470879
-0.482094
-0.492696
-0.502557
-0.511597
-0.519777
-0.527098
-0.533588
-0.539297
-0.544289
-0.548634
-0.552406
-0.420405
-0.420608
-0.427862
-0.43789
-0.449206
-0.461216
-0.473418
-0.485424
-0.496941
-0.507752
-0.517706
-0.526714
-0.534737
-0.541781
-0.547887
-0.553117
-0.557548
-0.561263
-0.564346
-0.56688
-0.438256
-0.440679
-0.450001
-0.461741
-0.474433
-0.487516
-0.500505
-0.513009
-0.524733
-0.535462
-0.545058
-0.553447
-0.560619
-0.56661
-0.571501
-0.575396
-0.578419
-0.580703
-0.582383
-0.583598
-0.449776
-0.454157
-0.464947
-0.477935
-0.491693
-0.505732
-0.51961
-0.532941
-0.545421
-0.556822
-0.566986
-0.575826
-0.583312
-0.589469
-0.594358
-0.598068
-0.600704
-0.602387
-0.603237
-0.603302
-0.353183
-0.878693
-1.09299
-1.19106
-1.22612
-1.2167
-1.18243
-1.13892
-1.095
-1.05463
-1.01903
-0.988071
-0.96114
-0.937579
-0.916898
-0.89884
-0.883424
-0.871078
-0.862817
-0.858078
-0.383996
-0.567832
-0.709001
-0.818834
-0.89945
-0.951278
-0.978808
-0.988364
-0.985797
-0.97578
-0.961721
-0.945894
-0.9297
-0.913965
-0.899193
-0.885766
-0.874082
-0.864742
-0.858912
-0.855325
-0.421385
-0.527205
-0.627392
-0.714325
-0.785081
-0.838807
-0.876401
-0.900064
-0.912551
-0.916626
-0.914756
-0.908967
-0.900818
-0.891467
-0.881779
-0.872449
-0.8641
-0.857467
-0.85401
-0.852006
-0.447235
-0.516975
-0.587198
-0.653532
-0.712839
-0.762993
-0.802962
-0.832814
-0.853453
-0.866263
-0.872801
-0.874584
-0.872967
-0.869106
-0.863966
-0.858384
-0.853118
-0.849005
-0.847832
-0.847669
-0.460877
-0.510377
-0.56196
-0.613421
-0.662496
-0.707169
-0.745921
-0.777892
-0.80289
-0.821277
-0.833807
-0.841442
-0.84521
-0.846113
-0.845083
-0.84299
-0.840652
-0.838965
-0.839998
-0.841781
-0.468686
-0.506585
-0.546671
-0.587782
-0.628495
-0.667336
-0.702962
-0.734319
-0.760751
-0.782032
-0.798322
-0.810085
-0.817982
-0.822774
-0.825265
-0.82627
-0.826604
-0.82717
-0.830246
-0.833891
-0.474498
-0.504646
-0.536801
-0.570336
-0.604381
-0.637922
-0.669907
-0.699366
-0.72552
-0.747867
-0.766206
-0.780633
-0.791482
-0.799266
-0.804613
-0.808235
-0.810893
-0.813454
-0.818326
-0.823579
-0.47977
-0.504304
-0.530612
-0.558349
-0.586983
-0.615833
-0.644126
-0.67106
-0.695901
-0.718056
-0.737142
-0.753014
-0.765756
-0.775657
-0.783166
-0.788865
-0.793431
-0.797659
-0.804014
-0.810478
-0.485238
-0.505486
-0.527271
-0.550404
-0.574554
-0.599271
-0.624001
-0.648124
-0.67101
-0.69209
-0.710915
-0.727207
-0.740884
-0.752057
-0.761014
-0.768202
-0.774196
-0.779696
-0.787159
-0.794327
-0.491244
-0.508082
-0.526232
-0.54559
-0.56595
-0.587013
-0.608387
-0.629606
-0.650163
-0.669559
-0.687355
-0.703223
-0.716984
-0.728628
-0.738314
-0.746369
-0.753259
-0.759572
-0.767721
-0.775004
-0.497939
-0.511978
-0.527118
-0.543301
-0.560397
-0.578203
-0.596443
-0.614773
-0.632798
-0.650103
-0.666299
-0.681061
-0.694173
-0.705554
-0.715272
-0.723556
-0.730775
-0.737398
-0.745771
-0.752537
-0.505393
-0.517073
-0.529656
-0.543109
-0.557343
-0.57222
-0.58754
-0.603049
-0.618444
-0.633395
-0.647576
-0.660696
-0.672543
-0.683008
-0.692107
-0.699999
-0.706969
-0.713376
-0.721494
-0.727099
-0.513645
-0.52329
-0.533653
-0.544708
-0.556392
-0.568602
-0.581191
-0.593967
-0.6067
-0.619133
-0.631003
-0.64207
-0.652149
-0.661136
-0.669028
-0.675944
-0.682106
-0.687772
-0.695158
-0.698984
-0.522735
-0.530586
-0.538978
-0.547885
-0.557254
-0.567004
-0.577019
-0.587152
-0.597223
-0.607036
-0.616386
-0.625088
-0.632997
-0.640036
-0.646209
-0.651621
-0.656454
-0.660882
-0.667084
-0.668574
-0.532719
-0.538953
-0.545556
-0.552498
-0.559729
-0.567174
-0.574738
-0.5823
-0.589719
-0.596844
-0.603522
-0.609618
-0.615037
-0.61974
-0.623759
-0.62721
-0.630256
-0.633009
-0.637625
-0.63632
-0.543684
-0.548427
-0.553372
-0.558478
-0.563688
-0.568933
-0.574123
-0.579158
-0.583923
-0.588301
-0.592185
-0.59549
-0.598169
-0.600232
-0.601755
-0.602879
-0.603769
-0.604494
-0.607204
-0.602782
-0.555806
-0.559127
-0.562475
-0.565801
-0.569042
-0.572127
-0.574975
-0.577497
-0.579602
-0.581198
-0.582214
-0.582604
-0.582371
-0.581573
-0.580334
-0.57884
-0.577269
-0.575671
-0.576206
-0.568464
-0.569032
-0.570995
-0.572809
-0.574421
-0.575766
-0.576771
-0.577351
-0.577416
-0.576878
-0.575659
-0.573707
-0.571009
-0.567614
-0.563636
-0.559266
-0.55475
-0.550308
-0.546007
-0.544009
-0.53273
-0.584513
-0.585198
-0.585567
-0.585513
-0.584935
-0.583732
-0.58181
-0.579079
-0.575466
-0.570919
-0.565426
-0.559031
-0.551855
-0.544103
-0.53607
-0.528111
-0.520521
-0.513435
-0.508687
-0.493639
-0.602479
-0.600793
-0.598428
-0.595433
-0.591745
-0.587299
-0.582038
-0.575907
-0.568864
-0.560892
-0.55202
-0.542348
-0.532067
-0.521472
-0.510958
-0.500975
-0.491905
-0.483991
-0.477768
-0.459548
)
;

boundaryField
{
    zeroGradientPlanes
    {
        type            zeroGradient;
    }
    inlet
    {
        type            zeroGradient;
    }
    plate
    {
        type            zeroGradient;
    }
    frontAndBack
    {
        type            empty;
    }
}


// ************************************************************************* //
