/*--------------------------------*- C++ -*----------------------------------*\
| =========                 |                                                 |
| \\      /  F ield         | OpenFOAM: The Open Source CFD Toolbox           |
|  \\    /   O peration     | Version:  v2012                                 |
|   \\  /    A nd           | Website:  www.openfoam.com                      |
|    \\/     M anipulation  |                                                 |
\*---------------------------------------------------------------------------*/
FoamFile
{
    version     2.0;
    format      ascii;
    class       surfaceScalarField;
    location    "0.3";
    object      phi;
}
// * * * * * * * * * * * * * * * * * * * * * * * * * * * * * * * * * * * * * //

dimensions      [0 3 -1 0 0 0 0];
oriented        oriented;


internalField   nonuniform List<scalar> 
1540
(
4.96846e-05
1.76172e-06
4.91955e-05
5.44314e-06
4.86597e-05
8.74118e-06
4.81126e-05
1.1614e-05
4.75701e-05
1.40848e-05
4.70392e-05
1.62028e-05
4.6522e-05
1.80175e-05
4.60183e-05
1.95672e-05
4.5526e-05
2.08742e-05
4.50414e-05
2.19418e-05
4.45589e-05
2.27554e-05
4.40709e-05
2.32839e-05
4.35668e-05
2.34834e-05
4.30321e-05
2.33023e-05
4.24475e-05
2.26863e-05
4.17869e-05
2.15876e-05
4.10067e-05
1.99781e-05
4.00207e-05
1.78596e-05
3.871e-05
1.52261e-05
1.19949e-05
3.70771e-05
4.97202e-05
2.04147e-06
4.92645e-05
5.8989e-06
4.8754e-05
9.25162e-06
4.82356e-05
1.21325e-05
4.77283e-05
1.4592e-05
4.72422e-05
1.66889e-05
4.67839e-05
1.84757e-05
4.63599e-05
1.99912e-05
4.59777e-05
2.12564e-05
4.56469e-05
2.22726e-05
4.53801e-05
2.30221e-05
4.51925e-05
2.34715e-05
4.50991e-05
2.35768e-05
4.51096e-05
2.32918e-05
4.52182e-05
2.25777e-05
4.53912e-05
2.14146e-05
4.5556e-05
1.98134e-05
4.5597e-05
1.78186e-05
4.53266e-05
1.54966e-05
1.29542e-05
4.43673e-05
4.97743e-05
2.26715e-06
4.93712e-05
6.30198e-06
4.89129e-05
9.70999e-06
4.84504e-05
1.25949e-05
4.80086e-05
1.50338e-05
4.76029e-05
1.70946e-05
4.72466e-05
1.8832e-05
4.69541e-05
2.02838e-05
4.67421e-05
2.14684e-05
4.66303e-05
2.23844e-05
4.66394e-05
2.3013e-05
4.67881e-05
2.33228e-05
4.70871e-05
2.32778e-05
4.75313e-05
2.28476e-05
4.80916e-05
2.20174e-05
4.87082e-05
2.0798e-05
4.92898e-05
1.92318e-05
4.97162e-05
1.73921e-05
4.98364e-05
1.53764e-05
1.33033e-05
4.94874e-05
4.98266e-05
2.44051e-06
4.94918e-05
6.63683e-06
4.91051e-05
1.00967e-05
4.87199e-05
1.29801e-05
4.83658e-05
1.53879e-05
4.80637e-05
1.73967e-05
4.78324e-05
1.90633e-05
4.76919e-05
2.04243e-05
4.76636e-05
2.14967e-05
4.7769e-05
2.2279e-05
4.80264e-05
2.27555e-05
4.84462e-05
2.2903e-05
4.90242e-05
2.26998e-05
4.97364e-05
2.21354e-05
5.0535e-05
2.12189e-05
5.13487e-05
1.99842e-05
5.20898e-05
1.84907e-05
5.2664e-05
1.6818e-05
5.29837e-05
1.50566e-05
1.32983e-05
5.29887e-05
4.9873e-05
2.56746e-06
4.9613e-05
6.89685e-06
4.93106e-05
1.03991e-05
4.90172e-05
1.32735e-05
4.87649e-05
1.56401e-05
4.85782e-05
1.75834e-05
4.84793e-05
1.91622e-05
4.84901e-05
2.04135e-05
4.86319e-05
2.13549e-05
4.89225e-05
2.19885e-05
4.93722e-05
2.23058e-05
4.99793e-05
2.22958e-05
5.07257e-05
2.19535e-05
5.15739e-05
2.12871e-05
5.2469e-05
2.03238e-05
5.3343e-05
1.91102e-05
5.41243e-05
1.77094e-05
5.47482e-05
1.6194e-05
5.51676e-05
1.46373e-05
1.31053e-05
5.53605e-05
4.99137e-05
2.65378e-06
4.97291e-05
7.08146e-06
4.95166e-05
1.06117e-05
4.93221e-05
1.3468e-05
4.91775e-05
1.57847e-05
4.91082e-05
1.76527e-05
4.9137e-05
1.91334e-05
4.92848e-05
2.02657e-05
4.95692e-05
2.10706e-05
5.00013e-05
2.15563e-05
5.05825e-05
2.17246e-05
5.13006e-05
2.15778e-05
5.2128e-05
2.1126e-05
5.3023e-05
2.03922e-05
5.39328e-05
1.9414e-05
5.48007e-05
1.82423e-05
5.55737e-05
1.69365e-05
5.62096e-05
1.5558e-05
5.66828e-05
1.41641e-05
1.28028e-05
5.69853e-05
4.9949e-05
2.7048e-06
4.98368e-05
7.19368e-06
4.97143e-05
1.07341e-05
4.96196e-05
1.35627e-05
4.95815e-05
1.58228e-05
4.96241e-05
1.76101e-05
4.97683e-05
1.89892e-05
5.00318e-05
2.00022e-05
5.04268e-05
2.06756e-05
5.09577e-05
2.10254e-05
5.16181e-05
2.10643e-05
5.2389e-05
2.08069e-05
5.32396e-05
2.02755e-05
5.41292e-05
1.95026e-05
5.50125e-05
1.85307e-05
5.5845e-05
1.74099e-05
5.65886e-05
1.61928e-05
5.72163e-05
1.49304e-05
5.77133e-05
1.36671e-05
1.24387e-05
5.80773e-05
4.99794e-05
2.72537e-06
4.99346e-05
7.2385e-06
4.98985e-05
1.07703e-05
4.98996e-05
1.35616e-05
4.99619e-05
1.57605e-05
5.01061e-05
1.7466e-05
5.03495e-05
1.87457e-05
5.07054e-05
1.96463e-05
5.11807e-05
2.02002e-05
5.17739e-05
2.04322e-05
5.24734e-05
2.03648e-05
5.32574e-05
2.00229e-05
5.40953e-05
1.94375e-05
5.49512e-05
1.86467e-05
5.57879e-05
1.76939e-05
5.65718e-05
1.6626e-05
5.72759e-05
1.54887e-05
5.78824e-05
1.43239e-05
5.83828e-05
1.31667e-05
1.20446e-05
5.8777e-05
5.00057e-05
2.71965e-06
5.00224e-05
7.22183e-06
5.00665e-05
1.07262e-05
5.01565e-05
1.34716e-05
5.03099e-05
1.5607e-05
5.05427e-05
1.72332e-05
5.08679e-05
1.84205e-05
5.12941e-05
1.92201e-05
5.18234e-05
1.96709e-05
5.24502e-05
1.98055e-05
5.31601e-05
1.96548e-05
5.39311e-05
1.92519e-05
5.47355e-05
1.86332e-05
5.55429e-05
1.78392e-05
5.63241e-05
1.69128e-05
5.70539e-05
1.58963e-05
5.77131e-05
1.48294e-05
5.82901e-05
1.37469e-05
5.87798e-05
1.26771e-05
1.16415e-05
5.91828e-05
5.00286e-05
2.69108e-06
5.01008e-05
7.14963e-06
5.0218e-05
1.0609e-05
5.03882e-05
1.33014e-05
5.06219e-05
1.53733e-05
5.09295e-05
1.69255e-05
5.13196e-05
1.80305e-05
5.17963e-05
1.87434e-05
5.23582e-05
1.9109e-05
5.29969e-05
1.91667e-05
5.36975e-05
1.89542e-05
5.44394e-05
1.851e-05
5.51986e-05
1.78739e-05
5.59506e-05
1.70873e-05
5.66727e-05
1.61907e-05
5.73463e-05
1.52227e-05
5.7958e-05
1.42177e-05
5.84998e-05
1.32051e-05
5.89688e-05
1.2208e-05
1.12442e-05
5.93662e-05
5.00488e-05
2.64228e-06
5.01711e-05
7.02732e-06
5.03541e-05
1.0426e-05
5.05954e-05
1.30601e-05
5.0898e-05
1.50706e-05
5.12671e-05
1.65564e-05
5.17066e-05
1.75911e-05
5.22171e-05
1.82329e-05
5.27946e-05
1.85315e-05
5.34295e-05
1.85317e-05
5.41076e-05
1.82762e-05
5.48105e-05
1.7807e-05
5.55186e-05
1.71659e-05
5.62123e-05
1.63935e-05
5.68745e-05
1.55285e-05
5.74916e-05
1.46055e-05
5.80543e-05
1.36551e-05
5.85572e-05
1.27022e-05
5.89987e-05
1.17665e-05
1.08627e-05
5.93802e-05
5.00673e-05
2.57497e-06
5.02353e-05
6.85937e-06
5.04772e-05
1.01841e-05
5.07806e-05
1.27567e-05
5.11415e-05
1.47098e-05
5.15596e-05
1.61383e-05
5.2035e-05
1.71157e-05
5.25655e-05
1.77024e-05
5.31456e-05
1.79515e-05
5.37655e-05
1.79118e-05
5.44122e-05
1.76295e-05
5.50706e-05
1.71487e-05
5.57246e-05
1.65118e-05
5.63594e-05
1.57587e-05
5.69623e-05
1.49256e-05
5.75234e-05
1.40444e-05
5.80364e-05
1.31421e-05
5.84979e-05
1.22407e-05
5.89071e-05
1.13572e-05
1.05042e-05
5.92656e-05
5.00852e-05
2.48978e-06
5.02955e-05
6.64902e-06
5.05905e-05
9.88912e-06
5.09479e-05
1.23993e-05
5.1357e-05
1.43006e-05
5.18131e-05
1.56822e-05
5.2313e-05
1.66158e-05
5.28526e-05
1.71628e-05
5.34253e-05
1.73788e-05
5.40222e-05
1.73149e-05
5.46321e-05
1.70195e-05
5.52427e-05
1.6538e-05
5.58418e-05
1.59128e-05
5.64182e-05
1.51823e-05
5.69627e-05
1.43811e-05
5.74687e-05
1.35384e-05
5.79318e-05
1.2679e-05
5.83502e-05
1.18223e-05
5.87239e-05
1.09836e-05
1.01738e-05
5.90543e-05
5.01036e-05
2.38614e-06
5.03544e-05
6.39822e-06
5.06975e-05
9.5461e-06
5.11014e-05
1.19954e-05
5.155e-05
1.3852e-05
5.20347e-05
1.51976e-05
5.25496e-05
1.61008e-05
5.30894e-05
1.6623e-05
5.36476e-05
1.68206e-05
5.42161e-05
1.67464e-05
5.47858e-05
1.64498e-05
5.53473e-05
1.59765e-05
5.58915e-05
1.53686e-05
5.64105e-05
1.46634e-05
5.6898e-05
1.38935e-05
5.73498e-05
1.30867e-05
5.77632e-05
1.22655e-05
5.81376e-05
1.1448e-05
5.84734e-05
1.06478e-05
9.87497e-06
5.87722e-05
5.0124e-05
2.26211e-06
5.04145e-05
6.10774e-06
5.08014e-05
9.15924e-06
5.12453e-05
1.15514e-05
5.17256e-05
1.33718e-05
5.22306e-05
1.46926e-05
5.2753e-05
1.55784e-05
5.32866e-05
1.60894e-05
5.38251e-05
1.62821e-05
5.43618e-05
1.62097e-05
5.48897e-05
1.59219e-05
5.54019e-05
1.54644e-05
5.5892e-05
1.48784e-05
5.63551e-05
1.42003e-05
5.67871e-05
1.34615e-05
5.71858e-05
1.2688e-05
5.75501e-05
1.19013e-05
5.788e-05
1.1118e-05
5.81766e-05
1.03512e-05
9.61003e-06
5.84416e-05
5.01478e-05
2.11433e-06
5.04778e-05
5.77769e-06
5.09045e-05
8.7326e-06
5.13822e-05
1.10736e-05
5.18871e-05
1.28669e-05
5.24057e-05
1.41739e-05
5.29297e-05
1.50545e-05
5.34524e-05
1.55667e-05
5.39683e-05
1.57663e-05
5.44717e-05
1.57063e-05
5.49576e-05
1.5436e-05
5.54215e-05
1.50006e-05
5.58593e-05
1.44405e-05
5.62684e-05
1.37912e-05
5.6647e-05
1.30829e-05
5.69942e-05
1.23408e-05
5.73102e-05
1.15853e-05
5.75959e-05
1.08323e-05
5.78527e-05
1.00943e-05
9.38021e-06
5.80826e-05
5.01764e-05
1.93792e-06
5.05455e-05
5.40859e-06
5.10071e-05
8.27098e-06
5.15121e-05
1.05686e-05
5.20352e-05
1.23439e-05
5.25619e-05
1.36472e-05
5.30831e-05
1.45332e-05
5.35924e-05
1.50574e-05
5.40845e-05
1.52742e-05
5.45551e-05
1.52357e-05
5.50007e-05
1.49903e-05
5.54188e-05
1.45825e-05
5.58074e-05
1.40519e-05
5.61658e-05
1.34329e-05
5.64937e-05
1.2755e-05
5.67919e-05
1.20427e-05
5.70615e-05
1.13157e-05
5.73041e-05
1.05897e-05
5.75217e-05
9.87673e-06
9.18566e-06
5.77163e-05
5.02111e-05
1.72686e-06
5.06162e-05
5.00344e-06
5.11062e-05
7.78103e-06
5.16314e-05
1.00434e-05
5.21666e-05
1.18087e-05
5.2697e-05
1.31167e-05
5.32132e-05
1.40171e-05
5.37084e-05
1.45622e-05
5.41778e-05
1.48048e-05
5.46181e-05
1.47953e-05
5.50272e-05
1.45812e-05
5.5404e-05
1.42057e-05
5.57484e-05
1.37075e-05
5.6061e-05
1.31203e-05
5.63431e-05
1.24729e-05
5.65965e-05
1.17892e-05
5.68233e-05
1.10888e-05
5.70259e-05
1.03871e-05
5.72065e-05
9.6961e-06
9.02465e-06
5.73675e-05
5.02489e-05
1.47801e-06
5.06819e-05
4.57039e-06
5.11917e-05
7.27126e-06
5.17301e-05
9.50491e-06
5.22728e-05
1.1266e-05
5.28049e-05
1.25847e-05
5.33161e-05
1.35058e-05
5.37997e-05
1.40787e-05
5.4251e-05
1.43536e-05
5.46671e-05
1.43792e-05
5.50468e-05
1.42015e-05
5.539e-05
1.38624e-05
5.5698e-05
1.33996e-05
5.59724e-05
1.28459e-05
5.62158e-05
1.22295e-05
5.6431e-05
1.1574e-05
5.66211e-05
1.08988e-05
5.67888e-05
1.02193e-05
5.69373e-05
9.54763e-06
8.89289e-06
5.70691e-05
5.02727e-05
5.07253e-05
5.1244e-05
5.17889e-05
5.2336e-05
5.28696e-05
5.33792e-05
5.38574e-05
5.42996e-05
5.47031e-05
5.50668e-05
5.53913e-05
5.56782e-05
5.59297e-05
5.61488e-05
5.63387e-05
5.65027e-05
5.66439e-05
5.67654e-05
5.68705e-05
2.82833e-05
8.79379e-06
2.14604e-05
6.82291e-06
1.6315e-05
5.14545e-06
1.25439e-05
3.77101e-06
9.8517e-06
2.69224e-06
7.96073e-06
1.89097e-06
6.63394e-06
1.32679e-06
5.68761e-06
9.46328e-07
4.9908e-06
6.96817e-07
4.45665e-06
5.34143e-07
4.03108e-06
4.25573e-07
3.682e-06
3.49085e-07
3.39101e-06
2.90987e-07
3.14787e-06
2.43134e-07
2.94728e-06
2.006e-07
2.78711e-06
1.60167e-07
2.66734e-06
1.19771e-07
2.58755e-06
7.97846e-08
2.53935e-06
4.81989e-08
2.5233e-08
4.18496e-05
1.13115e-05
3.83537e-05
1.03188e-05
3.44188e-05
9.08034e-06
3.04358e-05
7.75399e-06
2.66737e-05
6.45434e-06
2.3297e-05
5.26766e-06
2.03776e-05
4.24627e-06
1.79163e-05
3.4076e-06
1.58707e-05
2.74244e-06
1.41789e-05
2.22593e-06
1.27773e-05
1.82713e-06
1.16105e-05
1.51588e-06
1.06351e-05
1.26642e-06
9.81992e-06
1.05831e-06
9.14476e-06
8.75767e-07
8.59817e-06
7.06751e-07
8.17496e-06
5.42987e-07
7.87094e-06
3.83804e-07
7.66987e-06
2.49261e-07
1.64816e-07
4.85281e-05
1.22708e-05
4.68271e-05
1.20198e-05
4.44508e-05
1.14567e-05
4.15651e-05
1.06397e-05
3.83732e-05
9.6462e-06
3.50784e-05
8.56242e-06
3.18545e-05
7.47019e-06
2.88277e-05
6.43445e-06
2.60729e-05
5.49721e-06
2.36212e-05
4.67765e-06
2.1472e-05
3.97627e-06
1.9607e-05
3.38093e-06
1.80006e-05
2.87275e-06
1.66285e-05
2.43044e-06
1.54713e-05
2.03295e-06
1.45169e-05
1.66117e-06
1.37594e-05
1.30045e-06
1.31948e-05
9.48429e-07
1.28066e-05
6.37484e-07
4.36737e-07
5.26344e-05
1.26251e-05
5.18158e-05
1.28384e-05
5.04721e-05
1.28003e-05
4.8609e-05
1.25028e-05
4.62914e-05
1.19638e-05
4.36296e-05
1.12242e-05
4.07583e-05
1.03416e-05
3.78135e-05
9.37923e-06
3.49144e-05
8.39627e-06
3.21524e-05
7.43972e-06
2.95881e-05
6.54053e-06
2.72557e-05
5.71328e-06
2.51699e-05
4.95857e-06
2.33338e-05
4.26651e-06
2.17463e-05
3.62047e-06
2.04068e-05
3.00066e-06
1.93178e-05
2.38952e-06
1.84821e-05
1.78406e-06
1.78902e-05
1.22944e-06
8.52052e-07
5.53234e-05
1.26622e-05
5.49942e-05
1.31676e-05
5.42971e-05
1.34974e-05
5.31821e-05
1.36178e-05
5.16359e-05
1.351e-05
4.96858e-05
1.31743e-05
4.73969e-05
1.26305e-05
4.4861e-05
1.19152e-05
4.21824e-05
1.10748e-05
3.9464e-05
1.01582e-05
3.67957e-05
9.20877e-06
3.42495e-05
8.25957e-06
3.18779e-05
7.33015e-06
2.97178e-05
6.42657e-06
2.77953e-05
5.54302e-06
2.61307e-05
4.66522e-06
2.4743e-05
3.77724e-06
2.36493e-05
2.87774e-06
2.28535e-05
2.02526e-06
1.41327e-06
5.71321e-05
1.25154e-05
5.70922e-05
1.32075e-05
5.68005e-05
1.3789e-05
5.61978e-05
1.42206e-05
5.52402e-05
1.44676e-05
5.39085e-05
1.4506e-05
5.22131e-05
1.43258e-05
5.01949e-05
1.39334e-05
4.79197e-05
1.335e-05
4.54696e-05
1.26083e-05
4.29327e-05
1.17457e-05
4.03939e-05
1.07984e-05
3.79286e-05
9.7954e-06
3.56006e-05
8.75462e-06
3.34624e-05
7.68125e-06
3.15585e-05
6.56906e-06
2.99291e-05
5.40666e-06
2.86105e-05
4.1963e-06
2.76256e-05
3.01022e-06
2.11481e-06
5.83326e-05
1.22601e-05
5.8469e-05
1.30711e-05
5.84358e-05
1.38223e-05
5.8179e-05
1.44773e-05
5.76484e-05
1.49982e-05
5.68045e-05
1.53499e-05
5.56261e-05
1.55043e-05
5.41152e-05
1.54443e-05
5.22992e-05
1.51661e-05
5.02281e-05
1.46794e-05
4.79695e-05
1.40042e-05
4.56012e-05
1.31667e-05
4.32033e-05
1.21933e-05
4.08534e-05
1.11046e-05
3.8623e-05
9.91163e-06
3.65778e-05
8.61425e-06
3.47789e-05
7.20554e-06
3.32838e-05
5.69147e-06
3.21367e-05
4.15723e-06
2.9438e-06
5.90939e-05
1.19432e-05
5.93372e-05
1.28278e-05
5.94682e-05
1.36913e-05
5.94427e-05
1.45029e-05
5.92136e-05
1.52273e-05
5.87364e-05
1.5827e-05
5.79752e-05
1.62655e-05
5.69084e-05
1.65111e-05
5.5534e-05
1.65405e-05
5.38718e-05
1.63415e-05
5.19629e-05
1.59131e-05
4.98661e-05
1.52635e-05
4.76527e-05
1.44067e-05
4.54007e-05
1.33565e-05
4.31903e-05
1.2122e-05
4.1101e-05
1.07036e-05
3.92109e-05
9.09566e-06
3.75964e-05
7.30593e-06
3.63234e-05
5.43018e-06
3.88151e-06
5.95305e-05
1.15956e-05
5.98351e-05
1.25232e-05
6.00678e-05
1.34586e-05
6.01935e-05
1.43772e-05
6.01721e-05
1.52487e-05
5.99614e-05
1.60377e-05
5.95212e-05
1.67057e-05
5.88184e-05
1.72139e-05
5.78324e-05
1.75266e-05
5.65596e-05
1.76143e-05
5.50164e-05
1.74563e-05
5.32392e-05
1.70406e-05
5.12827e-05
1.63632e-05
4.92154e-05
1.54238e-05
4.71159e-05
1.42215e-05
4.50691e-05
1.27504e-05
4.31635e-05
1.10013e-05
4.14899e-05
8.97954e-06
4.01323e-05
6.78776e-06
4.9049e-06
5.97235e-05
1.12383e-05
6.00585e-05
1.21882e-05
6.03499e-05
1.31672e-05
6.05704e-05
1.41567e-05
6.06875e-05
1.51316e-05
6.06643e-05
1.6061e-05
6.0462e-05
1.6908e-05
6.00439e-05
1.7632e-05
5.93797e-05
1.81908e-05
5.84505e-05
1.85435e-05
5.72535e-05
1.86533e-05
5.58043e-05
1.84899e-05
5.41382e-05
1.80293e-05
5.23091e-05
1.72529e-05
5.03864e-05
1.61441e-05
4.84522e-05
1.46846e-05
4.65981e-05
1.28553e-05
4.4923e-05
1.06547e-05
4.35236e-05
8.18715e-06
5.98852e-06
5.97326e-05
1.08859e-05
6.00765e-05
1.18442e-05
6.03963e-05
1.28474e-05
6.06714e-05
1.38816e-05
6.08759e-05
1.49271e-05
6.09791e-05
1.59578e-05
6.09464e-05
1.69406e-05
6.07422e-05
1.78362e-05
6.03328e-05
1.86002e-05
5.9691e-05
1.91853e-05
5.88005e-05
1.95437e-05
5.76608e-05
1.96296e-05
5.62892e-05
1.94009e-05
5.47227e-05
1.88194e-05
5.30175e-05
1.78493e-05
5.12469e-05
1.64553e-05
4.94987e-05
1.46035e-05
4.78728e-05
1.22805e-05
4.64726e-05
9.58736e-06
7.10625e-06
5.96027e-05
1.05488e-05
5.99404e-05
1.15065e-05
6.02673e-05
1.25205e-05
6.05679e-05
1.3581e-05
6.08221e-05
1.46729e-05
6.1005e-05
1.57748e-05
6.10875e-05
1.68581e-05
6.10373e-05
1.78864e-05
6.08213e-05
1.88162e-05
6.0409e-05
1.95976e-05
5.97769e-05
2.01758e-05
5.89125e-05
2.0494e-05
5.78188e-05
2.04947e-05
5.6517e-05
2.01212e-05
5.50481e-05
1.93181e-05
5.3473e-05
1.80305e-05
5.18706e-05
1.6206e-05
5.03356e-05
1.38154e-05
4.89712e-05
1.09518e-05
8.23295e-06
5.93689e-05
1.02341e-05
5.96896e-05
1.11858e-05
6.00082e-05
1.22019e-05
6.03132e-05
1.3276e-05
6.05892e-05
1.43969e-05
6.08167e-05
1.55474e-05
6.09716e-05
1.67032e-05
6.10263e-05
1.78317e-05
6.09506e-05
1.88919e-05
6.07144e-05
1.98338e-05
6.02908e-05
2.05994e-05
5.96605e-05
2.11244e-05
5.88156e-05
2.13395e-05
5.77644e-05
2.11724e-05
5.65334e-05
2.05492e-05
5.51691e-05
1.93947e-05
5.37382e-05
1.76369e-05
5.23252e-05
1.52284e-05
5.10268e-05
1.22502e-05
9.34586e-06
5.90592e-05
9.94713e-06
5.93553e-05
1.08898e-05
5.96545e-05
1.19027e-05
5.99486e-05
1.2982e-05
6.02259e-05
1.41196e-05
6.04714e-05
1.53019e-05
6.06659e-05
1.65087e-05
6.07865e-05
1.77111e-05
6.08071e-05
1.88713e-05
6.07e-05
1.99409e-05
6.04383e-05
2.08611e-05
5.99993e-05
2.15634e-05
5.93686e-05
2.19702e-05
5.85441e-05
2.19969e-05
5.75398e-05
2.15534e-05
5.63883e-05
2.05462e-05
5.51417e-05
1.88836e-05
5.38711e-05
1.6499e-05
5.26617e-05
1.34596e-05
1.04257e-05
5.86974e-05
9.69127e-06
5.89635e-05
1.06237e-05
5.92356e-05
1.16305e-05
5.95079e-05
1.27097e-05
5.97717e-05
1.38557e-05
6.00157e-05
1.50579e-05
6.0225e-05
1.62993e-05
6.03813e-05
1.75548e-05
6.04629e-05
1.87897e-05
6.04458e-05
1.99581e-05
6.03049e-05
2.1002e-05
6.00172e-05
2.18511e-05
5.95646e-05
2.24228e-05
5.89381e-05
2.26234e-05
5.81416e-05
2.235e-05
5.71945e-05
2.14933e-05
5.61343e-05
1.99438e-05
5.50161e-05
1.76171e-05
5.39109e-05
1.45649e-05
1.14575e-05
5.83052e-05
9.46863e-06
5.85379e-05
1.0391e-05
5.87779e-05
1.13905e-05
5.90209e-05
1.24667e-05
5.9261e-05
1.36157e-05
5.94897e-05
1.48292e-05
5.9696e-05
1.60931e-05
5.98656e-05
1.73852e-05
5.99814e-05
1.8674e-05
6.00231e-05
1.99163e-05
5.9969e-05
2.10561e-05
5.97973e-05
2.20228e-05
5.94889e-05
2.27312e-05
5.90305e-05
2.30818e-05
5.8418e-05
2.29625e-05
5.76598e-05
2.22515e-05
5.67789e-05
2.08247e-05
5.58138e-05
1.85822e-05
5.48194e-05
1.55592e-05
1.24314e-05
5.79049e-05
9.27997e-06
5.81027e-05
1.01932e-05
5.83079e-05
1.11853e-05
5.85177e-05
1.22569e-05
5.8728e-05
1.34053e-05
5.8933e-05
1.46242e-05
5.91246e-05
1.59014e-05
5.92924e-05
1.72174e-05
5.9423e-05
1.85434e-05
5.95004e-05
1.9839e-05
5.95063e-05
2.10502e-05
5.94213e-05
2.21078e-05
5.92268e-05
2.29257e-05
5.89071e-05
2.34014e-05
5.84526e-05
2.3417e-05
5.78622e-05
2.28419e-05
5.71456e-05
2.15413e-05
5.6325e-05
1.94028e-05
5.54394e-05
1.64449e-05
1.33433e-05
5.75235e-05
9.12397e-06
5.76873e-05
1.00294e-05
5.7858e-05
1.10147e-05
5.80339e-05
1.20809e-05
5.82127e-05
1.32266e-05
5.83904e-05
1.44465e-05
5.85616e-05
1.57302e-05
5.87189e-05
1.70602e-05
5.88522e-05
1.84101e-05
5.89492e-05
1.97419e-05
5.89951e-05
2.10043e-05
5.89732e-05
2.21296e-05
5.88662e-05
2.30327e-05
5.86575e-05
2.36102e-05
5.83332e-05
2.37412e-05
5.78847e-05
2.32904e-05
5.73098e-05
2.21162e-05
5.6615e-05
2.00976e-05
5.58262e-05
1.72336e-05
1.41945e-05
5.71963e-05
8.9967e-06
5.73298e-05
9.89594e-06
5.74695e-05
1.0875e-05
5.76148e-05
1.19356e-05
5.77647e-05
1.30767e-05
5.79169e-05
1.42943e-05
5.80681e-05
1.5579e-05
5.8213e-05
1.69153e-05
5.83442e-05
1.82788e-05
5.84523e-05
1.96339e-05
5.85251e-05
2.09315e-05
5.85482e-05
2.21064e-05
5.85057e-05
2.30753e-05
5.83804e-05
2.37355e-05
5.81559e-05
2.39658e-05
5.78171e-05
2.36292e-05
5.73522e-05
2.25812e-05
5.67524e-05
2.06974e-05
5.60359e-05
1.79501e-05
1.49929e-05
5.6972e-05
5.70815e-05
5.71995e-05
5.73256e-05
5.7459e-05
5.75979e-05
5.77396e-05
5.78797e-05
5.80122e-05
5.81289e-05
5.82194e-05
5.82706e-05
5.82673e-05
5.81923e-05
5.80274e-05
5.77538e-05
5.73535e-05
5.68125e-05
5.60981e-05
)
;

boundaryField
{
    zeroGradientPlanes
    {
        type            calculated;
        value           nonuniform List<scalar> 
80
(
-1.4463e-06
-4.95405e-06
-8.20539e-06
-1.10668e-05
-1.35424e-05
-1.56719e-05
-1.75003e-05
-1.90635e-05
-2.03818e-05
-2.14572e-05
-2.22729e-05
-2.27958e-05
-2.29793e-05
-2.27676e-05
-2.21017e-05
-2.0927e-05
-1.91979e-05
-1.68736e-05
-1.39154e-05
-1.03621e-05
2.51412e-06
7.53029e-06
1.25347e-05
1.74749e-05
2.22923e-05
2.6924e-05
3.13078e-05
3.53857e-05
3.9109e-05
4.24399e-05
4.53549e-05
4.78445e-05
4.99139e-05
5.15819e-05
5.28791e-05
5.38455e-05
5.45275e-05
5.4975e-05
5.52375e-05
5.51362e-05
1.20535e-06
4.11778e-06
6.75251e-06
8.96001e-06
1.07189e-05
1.20511e-05
1.29962e-05
1.36004e-05
1.39114e-05
1.39758e-05
1.38378e-05
1.35379e-05
1.31127e-05
1.25943e-05
1.20104e-05
1.13841e-05
1.07349e-05
1.00781e-05
9.42608e-06
8.78784e-06
8.89516e-06
9.78645e-06
1.07571e-05
1.18094e-05
1.29433e-05
1.41553e-05
1.54374e-05
1.67752e-05
1.81463e-05
1.95172e-05
2.08411e-05
2.20552e-05
2.30786e-05
2.38105e-05
2.41308e-05
2.39027e-05
2.29815e-05
2.12384e-05
1.86645e-05
1.59548e-05
)
;
    }
    inlet
    {
        type            calculated;
        value           nonuniform List<scalar> 
20
(
-5e-05
-5e-05
-5e-05
-5e-05
-5e-05
-5e-05
-5e-05
-5e-05
-5e-05
-5e-05
-5e-05
-5e-05
-5e-05
-5e-05
-5e-05
-5e-05
-5e-05
-5e-05
-5e-05
-5e-05
)
;
    }
    plate
    {
        type            calculated;
        value           uniform 0;
    }
    frontAndBack
    {
        type            empty;
        value           nonuniform List<scalar> 0();
    }
}


// ************************************************************************* //
