/*--------------------------------*- C++ -*----------------------------------*\
| =========                 |                                                 |
| \\      /  F ield         | OpenFOAM: The Open Source CFD Toolbox           |
|  \\    /   O peration     | Version:  v2012                                 |
|   \\  /    A nd           | Website:  www.openfoam.com                      |
|    \\/     M anipulation  |                                                 |
\*---------------------------------------------------------------------------*/
FoamFile
{
    version     2.0;
    format      ascii;
    class       volVectorField;
    location    "0.3";
    object      U;
}
// * * * * * * * * * * * * * * * * * * * * * * * * * * * * * * * * * * * * * //

dimensions      [0 1 -1 0 0 0 0];


internalField   nonuniform List<vector> 
800
(
(0.997911 0.0158043 0)
(0.989604 0.0563139 0)
(0.978968 0.100185 0)
(0.967946 0.146157 0)
(0.95699 0.193941 0)
(0.946226 0.243676 0)
(0.935727 0.295646 0)
(0.925507 0.350089 0)
(0.915545 0.407031 0)
(0.905782 0.466125 0)
(0.896128 0.526482 0)
(0.886455 0.586503 0)
(0.876591 0.643726 0)
(0.86634 0.694679 0)
(0.855385 0.734782 0)
(0.8429 0.75834 0)
(0.827647 0.758701 0)
(0.811513 0.728286 0)
(0.80252 0.657649 0)
(0.784369 0.535211 0)
(0.998233 0.0188788 0)
(0.990642 0.0615646 0)
(0.980561 0.106535 0)
(0.970092 0.153235 0)
(0.959767 0.201597 0)
(0.949785 0.251852 0)
(0.940299 0.304323 0)
(0.931431 0.359263 0)
(0.923316 0.416704 0)
(0.916121 0.476296 0)
(0.910071 0.537143 0)
(0.905446 0.597655 0)
(0.902564 0.655434 0)
(0.901717 0.707214 0)
(0.903011 0.748914 0)
(0.906041 0.775871 0)
(0.909679 0.783382 0)
(0.912575 0.767175 0)
(0.912876 0.722705 0)
(0.902844 0.644809 0)
(0.998672 0.0217349 0)
(0.992227 0.0668677 0)
(0.983193 0.11304 0)
(0.973781 0.160415 0)
(0.964642 0.209184 0)
(0.956087 0.259658 0)
(0.948385 0.312155 0)
(0.941801 0.366875 0)
(0.936644 0.423744 0)
(0.933278 0.482262 0)
(0.932115 0.541344 0)
(0.93357 0.599198 0)
(0.93797 0.653284 0)
(0.945419 0.700394 0)
(0.955626 0.736883 0)
(0.967731 0.759108 0)
(0.980237 0.764062 0)
(0.991072 0.750017 0)
(0.997483 0.716863 0)
(0.995868 0.666592 0)
(0.999059 0.0237739 0)
(0.993887 0.0709961 0)
(0.986272 0.118188 0)
(0.978333 0.166031 0)
(0.970816 0.214919 0)
(0.964142 0.265202 0)
(0.95869 0.317154 0)
(0.95484 0.370861 0)
(0.953006 0.426097 0)
(0.953627 0.482178 0)
(0.957122 0.537859 0)
(0.963807 0.591282 0)
(0.973778 0.640042 0)
(0.98679 0.681388 0)
(1.00214 0.712559 0)
(1.01864 0.731221 0)
(1.03467 0.735932 0)
(1.04836 0.726498 0)
(1.05777 0.704132 0)
(1.06129 0.671455 0)
(0.999361 0.0252548 0)
(0.995446 0.0742168 0)
(0.989465 0.122262 0)
(0.983285 0.170401 0)
(0.977684 0.219162 0)
(0.97316 0.26891 0)
(0.970163 0.319844 0)
(0.969134 0.37193 0)
(0.970511 0.424794 0)
(0.974701 0.477631 0)
(0.98201 0.529147 0)
(0.992553 0.577595 0)
(1.00616 0.620908 0)
(1.02228 0.656948 0)
(1.03999 0.683822 0)
(1.05803 0.700213 0)
(1.07496 0.705645 0)
(1.08936 0.700597 0)
(1.10005 0.686441 0)
(1.1063 0.665237 0)
(0.999596 0.0263111 0)
(0.996861 0.0766341 0)
(0.992592 0.125323 0)
(0.988314 0.173562 0)
(0.984771 0.221958 0)
(0.982487 0.27086 0)
(0.981936 0.32039 0)
(0.983558 0.370406 0)
(0.987749 0.420434 0)
(0.994816 0.469624 0)
(1.00491 0.516746 0)
(1.01793 0.560282 0)
(1.0335 0.598582 0)
(1.05092 0.630107 0)
(1.06923 0.653664 0)
(1.0873 0.66862 0)
(1.10399 0.675008 0)
(1.11831 0.673512 0)
(1.12955 0.665333 0)
(1.13738 0.651981 0)
(0.99978 0.0269926 0)
(0.998121 0.0782495 0)
(0.995542 0.127315 0)
(0.993187 0.175435 0)
(0.991711 0.223239 0)
(0.991615 0.271041 0)
(0.993346 0.318893 0)
(0.997296 0.366575 0)
(1.00378 0.413568 0)
(1.01298 0.459049 0)
(1.02489 0.501933 0)
(1.03928 0.540982 0)
(1.05563 0.574964 0)
(1.07322 0.602835 0)
(1.09118 0.623913 0)
(1.10857 0.637973 0)
(1.12453 0.645279 0)
(1.1384 0.646507 0)
(1.14974 0.642626 0)
(1.15839 0.634742 0)
(0.999924 0.0273443 0)
(0.999231 0.079096 0)
(0.998255 0.128247 0)
(0.997756 0.176026 0)
(0.998258 0.223043 0)
(1.0002 0.269566 0)
(1.00395 0.315588 0)
(1.00984 0.360844 0)
(1.01809 0.404818 0)
(1.02875 0.44677 0)
(1.04171 0.485794 0)
(1.05663 0.520937 0)
(1.07299 0.551322 0)
(1.0901 0.57629 0)
(1.10721 0.595494 0)
(1.12359 0.608943 0)
(1.13862 0.61698 0)
(1.15183 0.620209 0)
(1.16297 0.619397 0)
(1.17194 0.615369 0)
(1.00004 0.0274116 0)
(1.0002 0.079235 0)
(1.00071 0.12818 0)
(1.00194 0.175411 0)
(1.00427 0.221487 0)
(1.00802 0.266624 0)
(1.01351 0.310768 0)
(1.02095 0.35364 0)
(1.03046 0.394761 0)
(1.04203 0.433497 0)
(1.05544 0.469132 0)
(1.07035 0.500964 0)
(1.08623 0.528404 0)
(1.1025 0.551067 0)
(1.11853 0.568823 0)
(1.13377 0.581804 0)
(1.14777 0.590365 0)
(1.16021 0.595028 0)
(1.17093 0.596401 0)
(1.17987 0.595119 0)
(1.00013 0.0272333 0)
(1.00106 0.0787344 0)
(1.00291 0.127199 0)
(1.00572 0.173697 0)
(1.00968 0.218719 0)
(1.01501 0.262425 0)
(1.02192 0.304728 0)
(1.03054 0.34535 0)
(1.04091 0.383869 0)
(1.05294 0.419768 0)
(1.06639 0.452502 0)
(1.08091 0.481579 0)
(1.09603 0.506629 0)
(1.11126 0.527459 0)
(1.12612 0.544073 0)
(1.14018 0.556664 0)
(1.15311 0.565573 0)
(1.1647 0.571245 0)
(1.17485 0.574174 0)
(1.18353 0.574855 0)
(1.00021 0.0268402 0)
(1.00182 0.077658 0)
(1.00489 0.125393 0)
(1.00912 0.171003 0)
(1.01451 0.214899 0)
(1.02117 0.257183 0)
(1.02921 0.29774 0)
(1.03868 0.336307 0)
(1.04956 0.372522 0)
(1.06172 0.405978 0)
(1.07491 0.436277 0)
(1.0888 0.463095 0)
(1.10301 0.486222 0)
(1.11713 0.505594 0)
(1.13078 0.521298 0)
(1.14365 0.533552 0)
(1.15551 0.542677 0)
(1.1662 0.549053 0)
(1.17568 0.553087 0)
(1.18392 0.55518 0)
(1.00028 0.0262543 0)
(1.00251 0.0760608 0)
(1.0067 0.122845 0)
(1.01217 0.167448 0)
(1.0188 0.210185 0)
(1.02656 0.251097 0)
(1.03547 0.290047 0)
(1.04552 0.326786 0)
(1.05664 0.361012 0)
(1.06868 0.392411 0)
(1.0814 0.420706 0)
(1.09453 0.445698 0)
(1.10773 0.467293 0)
(1.1207 0.485512 0)
(1.13314 0.500492 0)
(1.14484 0.51246 0)
(1.15563 0.521711 0)
(1.16541 0.528577 0)
(1.17413 0.5334 0)
(1.18182 0.536514 0)
(1.00036 0.0254877 0)
(1.00318 0.0739853 0)
(1.00838 0.119634 0)
(1.01497 0.163143 0)
(1.02264 0.204723 0)
(1.03129 0.244349 0)
(1.04085 0.281857 0)
(1.05125 0.317013 0)
(1.06239 0.349563 0)
(1.07413 0.37927 0)
(1.08625 0.405948 0)
(1.09851 0.429493 0)
(1.11067 0.449887 0)
(1.12249 0.46721 0)
(1.13375 0.481625 0)
(1.1443 0.493361 0)
(1.15403 0.502689 0)
(1.16287 0.509902 0)
(1.1708 0.515296 0)
(1.17785 0.519154 0)
(1.00044 0.0245405 0)
(1.00386 0.0714588 0)
(1.01 0.115822 0)
(1.01757 0.158187 0)
(1.02613 0.198645 0)
(1.03548 0.237095 0)
(1.04549 0.273344 0)
(1.05605 0.307165 0)
(1.06706 0.338342 0)
(1.07836 0.366694 0)
(1.08979 0.392105 0)
(1.10115 0.414532 0)
(1.11226 0.434014 0)
(1.12294 0.450663 0)
(1.13305 0.464658 0)
(1.14247 0.476223 0)
(1.15115 0.485609 0)
(1.15904 0.493081 0)
(1.16616 0.498898 0)
(1.17251 0.503309 0)
(1.00055 0.0234006 0)
(1.00458 0.0684958 0)
(1.01162 0.111464 0)
(1.02006 0.152671 0)
(1.02936 0.192067 0)
(1.03925 0.229469 0)
(1.04954 0.264648 0)
(1.06013 0.297377 0)
(1.07088 0.327466 0)
(1.08166 0.354774 0)
(1.09235 0.37923 0)
(1.10279 0.400834 0)
(1.11285 0.419658 0)
(1.12242 0.435833 0)
(1.1314 0.449545 0)
(1.13973 0.461008 0)
(1.14738 0.47046 0)
(1.15433 0.478142 0)
(1.1606 0.484288 0)
(1.16622 0.489122 0)
(1.0007 0.0220467 0)
(1.00539 0.0651113 0)
(1.01327 0.106621 0)
(1.02249 0.14669 0)
(1.03238 0.185107 0)
(1.04266 0.221596 0)
(1.05312 0.255891 0)
(1.06362 0.287759 0)
(1.07403 0.317022 0)
(1.08426 0.343565 0)
(1.09418 0.367346 0)
(1.10371 0.388388 0)
(1.11276 0.40678 0)
(1.12125 0.422666 0)
(1.12915 0.436225 0)
(1.13642 0.447668 0)
(1.14306 0.457215 0)
(1.14909 0.465091 0)
(1.15452 0.471512 0)
(1.15939 0.476684 0)
(1.0009 0.0204418 0)
(1.00633 0.0613166 0)
(1.01499 0.101359 0)
(1.02484 0.140348 0)
(1.0352 0.177885 0)
(1.04575 0.213603 0)
(1.05627 0.247195 0)
(1.06661 0.278416 0)
(1.07665 0.307092 0)
(1.08631 0.33312 0)
(1.0955 0.356472 0)
(1.10416 0.377181 0)
(1.11224 0.395345 0)
(1.11973 0.411104 0)
(1.12661 0.424636 0)
(1.13288 0.436139 0)
(1.13856 0.445823 0)
(1.14368 0.453897 0)
(1.14829 0.460566 0)
(1.15241 0.466021 0)
(1.00118 0.0184668 0)
(1.00738 0.0570037 0)
(1.01671 0.0955943 0)
(1.02705 0.13357 0)
(1.03774 0.170328 0)
(1.04846 0.205412 0)
(1.05897 0.238475 0)
(1.06912 0.269258 0)
(1.07879 0.297583 0)
(1.08792 0.323345 0)
(1.09643 0.346515 0)
(1.10431 0.367127 0)
(1.11154 0.385269 0)
(1.11812 0.401076 0)
(1.12407 0.414714 0)
(1.12943 0.426372 0)
(1.13423 0.436248 0)
(1.13852 0.444541 0)
(1.14235 0.451448 0)
(1.14576 0.457153 0)
(1.0015 0.0158945 0)
(1.00844 0.0519214 0)
(1.01825 0.0890462 0)
(1.02892 0.126028 0)
(1.03981 0.16205 0)
(1.05062 0.196572 0)
(1.06111 0.229216 0)
(1.0711 0.259708 0)
(1.08048 0.28786 0)
(1.08918 0.313562 0)
(1.09715 0.336774 0)
(1.1044 0.357517 0)
(1.11092 0.375865 0)
(1.11675 0.391936 0)
(1.12193 0.405878 0)
(1.12651 0.417859 0)
(1.13056 0.428062 0)
(1.13413 0.436671 0)
(1.13729 0.443869 0)
(1.14009 0.449832 0)
(1.00174 0.0132373 0)
(1.00913 0.0471723 0)
(1.01919 0.0831226 0)
(1.03003 0.119293 0)
(1.04104 0.154699 0)
(1.05191 0.188742 0)
(1.0624 0.221017 0)
(1.07232 0.251245 0)
(1.08156 0.279234 0)
(1.09004 0.304869 0)
(1.09773 0.328103 0)
(1.10463 0.348951 0)
(1.11075 0.367475 0)
(1.11614 0.383779 0)
(1.12084 0.397997 0)
(1.12493 0.410283 0)
(1.12847 0.420804 0)
(1.13151 0.429731 0)
(1.13413 0.437235 0)
(1.13638 0.443484 0)
(0.638769 0.349451 0)
(0.492872 0.221137 0)
(0.370429 0.134962 0)
(0.28159 0.0794977 0)
(0.218879 0.0450843 0)
(0.174588 0.0246803 0)
(0.143447 0.0132122 0)
(0.121451 0.00711635 0)
(0.105539 0.00403657 0)
(0.0935781 0.00252692 0)
(0.0842094 0.00177096 0)
(0.076612 0.00134927 0)
(0.0703095 0.00106787 0)
(0.0650337 0.000845992 0)
(0.06064 0.0006522 0)
(0.0570612 0.000473788 0)
(0.0542853 0.00030557 0)
(0.0523244 0.000154217 0)
(0.0510612 5.96359e-05 0)
(0.0504972 -1.37578e-05 0)
(0.866162 0.533925 0)
(0.804405 0.419735 0)
(0.72737 0.316016 0)
(0.64638 0.229456 0)
(0.568086 0.161632 0)
(0.496383 0.111472 0)
(0.43345 0.076192 0)
(0.379917 0.0523107 0)
(0.335248 0.0365191 0)
(0.298293 0.026134 0)
(0.26774 0.0192064 0)
(0.24237 0.0144347 0)
(0.221193 0.0110017 0)
(0.203469 0.00841161 0)
(0.188697 0.00636463 0)
(0.176571 0.00467631 0)
(0.166946 0.00323778 0)
(0.159767 0.00202131 0)
(0.154747 0.00114565 0)
(0.151964 0.00062703 0)
(0.983008 0.602558 0)
(0.956322 0.528367 0)
(0.914762 0.448462 0)
(0.861021 0.369183 0)
(0.799114 0.295624 0)
(0.733281 0.231284 0)
(0.667385 0.177818 0)
(0.60446 0.135237 0)
(0.546492 0.102418 0)
(0.494472 0.0776714 0)
(0.448627 0.0592024 0)
(0.408702 0.0453971 0)
(0.374209 0.0349508 0)
(0.344622 0.0268785 0)
(0.31949 0.0204671 0)
(0.298496 0.0152166 0)
(0.281478 0.0108025 0)
(0.26839 0.00709454 0)
(0.258875 0.00428089 0)
(0.253154 0.00263944 0)
(1.05805 0.630634 0)
(1.04661 0.580976 0)
(1.02494 0.522892 0)
(0.992494 0.459554 0)
(0.950067 0.394603 0)
(0.899524 0.331562 0)
(0.84343 0.27332 0)
(0.784599 0.221796 0)
(0.725651 0.177862 0)
(0.668714 0.141481 0)
(0.615294 0.11198 0)
(0.5663 0.0883446 0)
(0.522173 0.0694587 0)
(0.48305 0.0542744 0)
(0.448919 0.0418913 0)
(0.419741 0.0315905 0)
(0.395542 0.022857 0)
(0.376429 0.0154523 0)
(0.36212 0.00962912 0)
(0.353051 0.0060827 0)
(1.10804 0.638291 0)
(1.10467 0.604466 0)
(1.09458 0.562942 0)
(1.07646 0.514844 0)
(1.04964 0.462033 0)
(1.01429 0.406853 0)
(0.971372 0.351797 0)
(0.922529 0.299135 0)
(0.869803 0.250629 0)
(0.81533 0.207381 0)
(0.761076 0.169823 0)
(0.708668 0.137832 0)
(0.659337 0.1109 0)
(0.613951 0.0883054 0)
(0.573107 0.0692662 0)
(0.537242 0.053047 0)
(0.506742 0.0390595 0)
(0.482023 0.0270108 0)
(0.463017 0.0172417 0)
(0.450463 0.0109956 0)
(1.142 0.634322 0)
(1.1433 0.611369 0)
(1.1402 0.582042 0)
(1.13139 0.546463 0)
(1.11581 0.505315 0)
(1.0928 0.459822 0)
(1.06225 0.411627 0)
(1.02472 0.362581 0)
(0.981307 0.314491 0)
(0.933551 0.268892 0)
(0.883208 0.226891 0)
(0.832044 0.189104 0)
(0.781683 0.15569 0)
(0.733516 0.126441 0)
(0.688689 0.10091 0)
(0.648154 0.0785422 0)
(0.612744 0.0588219 0)
(0.583282 0.0414944 0)
(0.560032 0.0270403 0)
(0.544114 0.0173663 0)
(1.16468 0.623497 0)
(1.16878 0.608169 0)
(1.17 0.587746 0)
(1.16728 0.561916 0)
(1.15952 0.530709 0)
(1.14581 0.494566 0)
(1.1255 0.454349 0)
(1.0984 0.41127 0)
(1.06482 0.366753 0)
(1.02554 0.32226 0)
(0.981802 0.279104 0)
(0.935087 0.238311 0)
(0.887013 0.200543 0)
(0.839179 0.166086 0)
(0.793082 0.134904 0)
(0.750085 0.106745 0)
(0.711451 0.0812861 0)
(0.67843 0.0584074 0)
(0.651669 0.0387919 0)
(0.632733 0.0251023 0)
(1.17912 0.608652 0)
(1.18486 0.598773 0)
(1.18877 0.584885 0)
(1.18999 0.566511 0)
(1.18759 0.543357 0)
(1.18063 0.515392 0)
(1.16828 0.482908 0)
(1.14994 0.446533 0)
(1.12536 0.407193 0)
(1.09473 0.366016 0)
(1.05866 0.324196 0)
(1.0182 0.282851 0)
(0.974671 0.242896 0)
(0.929602 0.204964 0)
(0.884594 0.169386 0)
(0.84125 0.136234 0)
(0.801151 0.105446 0)
(0.765921 0.0771013 0)
(0.736574 0.0521402 0)
(0.715152 0.0340403 0)
(1.18743 0.59164 0)
(1.19406 0.585703 0)
(1.19956 0.576634 0)
(1.20329 0.563923 0)
(1.20448 0.547135 0)
(1.20229 0.525982 0)
(1.19588 0.500388 0)
(1.18448 0.47054 0)
(1.16754 0.436904 0)
(1.14481 0.400203 0)
(1.1164 0.361343 0)
(1.08287 0.321308 0)
(1.04515 0.28104 0)
(1.00449 0.241335 0)
(0.962402 0.202768 0)
(0.920524 0.165684 0)
(0.880608 0.130277 0)
(0.844538 0.0968576 0)
(0.813623 0.0666501 0)
(0.790374 0.0439648 0)
(1.19111 0.573711 0)
(1.19812 0.570646 0)
(1.20448 0.565146 0)
(1.20972 0.556722 0)
(1.21323 0.544899 0)
(1.2143 0.529266 0)
(1.21216 0.509531 0)
(1.20604 0.485581 0)
(1.19525 0.457522 0)
(1.17927 0.425699 0)
(1.15787 0.390679 0)
(1.13117 0.353193 0)
(1.09971 0.314051 0)
(1.06437 0.27404 0)
(1.02644 0.233841 0)
(0.987423 0.193973 0)
(0.949093 0.154838 0)
(0.913454 0.11696 0)
(0.881986 0.0818506 0)
(0.857643 0.0546263 0)
(1.19129 0.555729 0)
(1.19831 0.554769 0)
(1.20503 0.55192 0)
(1.21107 0.546737 0)
(1.21598 0.538756 0)
(1.21918 0.527519 0)
(1.22001 0.512624 0)
(1.21775 0.49377 0)
(1.21168 0.470806 0)
(1.20119 0.443771 0)
(1.18581 0.412912 0)
(1.16537 0.378669 0)
(1.14002 0.341629 0)
(1.11033 0.302452 0)
(1.07723 0.261795 0)
(1.04203 0.220245 0)
(1.00638 0.178332 0)
(0.972253 0.136752 0)
(0.941169 0.0972745 0)
(0.916475 0.0657605 0)
(1.1888 0.538298 0)
(1.19559 0.538889 0)
(1.2023 0.538015 0)
(1.20865 0.535283 0)
(1.21429 0.530258 0)
(1.21877 0.522484 0)
(1.22154 0.51151 0)
(1.22197 0.496928 0)
(1.2194 0.47842 0)
(1.21318 0.455797 0)
(1.20274 0.429038 0)
(1.18771 0.398305 0)
(1.16798 0.36393 0)
(1.14378 0.326378 0)
(1.11575 0.286188 0)
(1.08491 0.243919 0)
(1.05268 0.200146 0)
(1.02092 0.155678 0)
(0.991024 0.112491 0)
(0.966684 0.0771052 0)
(1.18432 0.521847 0)
(1.19071 0.523586 0)
(1.19715 0.524189 0)
(1.20344 0.52331 0)
(1.20933 0.520554 0)
(1.21445 0.515485 0)
(1.21837 0.507641 0)
(1.22058 0.496565 0)
(1.22047 0.481833 0)
(1.21743 0.463102 0)
(1.21087 0.440144 0)
(1.20032 0.412882 0)
(1.18548 0.381402 0)
(1.16635 0.345947 0)
(1.14327 0.306885 0)
(1.11698 0.264672 0)
(1.08861 0.21986 0)
(1.05981 0.173302 0)
(1.03174 0.12713 0)
(1.00838 0.088416 0)
(1.17838 0.506678 0)
(1.18424 0.509276 0)
(1.19023 0.510989 0)
(1.19621 0.511513 0)
(1.20198 0.510493 0)
(1.20728 0.50752 0)
(1.21176 0.502146 0)
(1.21501 0.493893 0)
(1.21651 0.482285 0)
(1.21574 0.466874 0)
(1.21211 0.447286 0)
(1.20513 0.423254 0)
(1.1944 0.394649 0)
(1.17974 0.361498 0)
(1.16126 0.323976 0)
(1.13943 0.282395 0)
(1.11509 0.237229 0)
(1.08961 0.189322 0)
(1.06381 0.140899 0)
(1.04194 0.0994817 0)
(1.17144 0.493004 0)
(1.17668 0.496251 0)
(1.18209 0.498803 0)
(1.18757 0.500391 0)
(1.19297 0.500694 0)
(1.19811 0.499335 0)
(1.20271 0.495885 0)
(1.20645 0.489868 0)
(1.20891 0.480783 0)
(1.20964 0.468124 0)
(1.20813 0.451418 0)
(1.20389 0.430255 0)
(1.19649 0.404336 0)
(1.18565 0.373492 0)
(1.17129 0.337712 0)
(1.15365 0.29715 0)
(1.13329 0.252168 0)
(1.11126 0.20356 0)
(1.08801 0.153593 0)
(1.06799 0.110131 0)
(1.16392 0.480965 0)
(1.16848 0.484711 0)
(1.17323 0.4879 0)
(1.17809 0.490294 0)
(1.18295 0.491599 0)
(1.18769 0.491468 0)
(1.19209 0.489493 0)
(1.19591 0.485212 0)
(1.19884 0.47812 0)
(1.20049 0.467681 0)
(1.20044 0.453358 0)
(1.19824 0.434647 0)
(1.19346 0.411114 0)
(1.18578 0.382436 0)
(1.175 0.348435 0)
(1.16115 0.309113 0)
(1.14455 0.264707 0)
(1.12593 0.215944 0)
(1.1053 0.165074 0)
(1.08734 0.120215 0)
(1.15624 0.470625 0)
(1.16012 0.474762 0)
(1.16416 0.478441 0)
(1.16833 0.481445 0)
(1.17256 0.483503 0)
(1.17674 0.484291 0)
(1.18075 0.483424 0)
(1.18439 0.480459 0)
(1.18743 0.474894 0)
(1.18958 0.466186 0)
(1.19048 0.453763 0)
(1.18975 0.43706 0)
(1.187 0.415551 0)
(1.18187 0.388796 0)
(1.1741 0.356487 0)
(1.16357 0.31849 0)
(1.15036 0.274933 0)
(1.13492 0.226458 0)
(1.1168 0.175251 0)
(1.10094 0.129589 0)
(1.14894 0.462026 0)
(1.15214 0.466471 0)
(1.15549 0.470522 0)
(1.15897 0.473973 0)
(1.16254 0.47657 0)
(1.16612 0.478008 0)
(1.16964 0.477925 0)
(1.17297 0.475896 0)
(1.17592 0.471436 0)
(1.17827 0.464006 0)
(1.17976 0.453027 0)
(1.18006 0.437902 0)
(1.17883 0.418051 0)
(1.1757 0.392956 0)
(1.17038 0.362212 0)
(1.16263 0.325587 0)
(1.15232 0.28311 0)
(1.13963 0.235343 0)
(1.12372 0.184324 0)
(1.1098 0.138408 0)
(1.14268 0.454931 0)
(1.14529 0.459597 0)
(1.14802 0.463883 0)
(1.15088 0.467603 0)
(1.15384 0.470527 0)
(1.15688 0.472376 0)
(1.15993 0.472813 0)
(1.16292 0.471441 0)
(1.16572 0.467797 0)
(1.16816 0.461359 0)
(1.17002 0.451549 0)
(1.17104 0.437758 0)
(1.1709 0.419376 0)
(1.16927 0.395832 0)
(1.16581 0.36665 0)
(1.16019 0.331519 0)
(1.15215 0.290389 0)
(1.14157 0.243744 0)
(1.12729 0.193406 0)
(1.11491 0.147755 0)
(1.13844 0.448859 0)
(1.14055 0.453812 0)
(1.14282 0.458415 0)
(1.14527 0.462494 0)
(1.14787 0.465833 0)
(1.15061 0.468169 0)
(1.15343 0.469182 0)
(1.15628 0.468494 0)
(1.15903 0.465655 0)
(1.16157 0.46015 0)
(1.16369 0.451404 0)
(1.16516 0.438794 0)
(1.1657 0.421686 0)
(1.16498 0.399468 0)
(1.16263 0.371612 0)
(1.15828 0.337744 0)
(1.15157 0.297755 0)
(1.14218 0.252072 0)
(1.12872 0.202453 0)
(1.11717 0.157369 0)
)
;

boundaryField
{
    zeroGradientPlanes
    {
        type            zeroGradient;
    }
    inlet
    {
        type            fixedValue;
        value           uniform (1 0 0);
    }
    plate
    {
        type            noSlip;
    }
    frontAndBack
    {
        type            empty;
    }
}


// ************************************************************************* //
