/*--------------------------------*- C++ -*----------------------------------*\
| =========                 |                                                 |
| \\      /  F ield         | OpenFOAM: The Open Source CFD Toolbox           |
|  \\    /   O peration     | Version:  v2012                                 |
|   \\  /    A nd           | Website:  www.openfoam.com                      |
|    \\/     M anipulation  |                                                 |
\*---------------------------------------------------------------------------*/
FoamFile
{
    version     2.0;
    format      ascii;
    class       volScalarField;
    location    "0.3";
    object      p;
}
// * * * * * * * * * * * * * * * * * * * * * * * * * * * * * * * * * * * * * //

dimensions      [0 2 -2 0 0 0 0];


internalField   nonuniform List<scalar> 
400
(
-3.20379e-06
-2.39515
-3.61174
-4.1215
-4.39226
-4.55831
-4.66584
-4.7407
-4.79673
-4.84092
-4.87713
-4.90771
-4.93422
-4.9578
-4.97931
-4.99945
-5.01878
-5.03794
-5.05711
-5.07037
-1.95691
-2.91633
-3.59202
-3.98942
-4.25469
-4.4399
-4.56996
-4.66422
-4.73544
-4.79124
-4.8364
-4.87399
-4.90614
-4.93432
-4.95964
-4.98292
-5.00476
-5.02604
-5.04782
-5.06365
-3.10384
-3.40386
-3.74006
-4.01759
-4.23459
-4.40077
-4.52673
-4.62322
-4.69869
-4.75907
-4.80849
-4.84988
-4.88532
-4.91635
-4.94414
-4.96956
-4.99326
-5.01635
-5.04058
-5.05859
-3.68109
-3.75804
-3.92887
-4.1133
-4.27521
-4.40976
-4.51944
-4.60839
-4.6809
-4.74069
-4.7907
-4.83321
-4.86998
-4.90237
-4.93147
-4.95814
-4.98304
-5.00744
-5.03343
-5.05284
-4.01176
-4.01291
-4.09759
-4.21564
-4.33187
-4.43685
-4.52848
-4.60688
-4.67347
-4.73012
-4.77866
-4.82067
-4.85748
-4.89022
-4.91981
-4.94705
-4.97257
-4.99767
-5.0246
-5.04453
-4.21828
-4.19647
-4.23627
-4.31049
-4.39252
-4.4728
-4.54739
-4.61446
-4.67369
-4.72568
-4.77132
-4.81157
-4.84736
-4.87953
-4.90883
-4.93594
-4.96143
-4.98656
-5.01352
-5.03304
-4.35485
-4.32976
-4.34747
-4.39422
-4.45185
-4.5125
-4.57212
-4.6282
-4.6796
-4.72607
-4.76784
-4.80539
-4.83927
-4.87007
-4.89834
-4.92464
-4.94942
-4.97388
-5
-5.01823
-4.45121
-4.42905
-4.43624
-4.46607
-4.50668
-4.55229
-4.59941
-4.64558
-4.68933
-4.72998
-4.76736
-4.80157
-4.83287
-4.86162
-4.88822
-4.91306
-4.93652
-4.95965
-4.98414
-5.00028
-4.52339
-4.50536
-4.50762
-4.52701
-4.55588
-4.5902
-4.62722
-4.6648
-4.70149
-4.73642
-4.7692
-4.79968
-4.82793
-4.85412
-4.8785
-4.90134
-4.92291
-4.94412
-4.96633
-4.97972
-4.58006
-4.56577
-4.56582
-4.5787
-4.59948
-4.62539
-4.65439
-4.68474
-4.71511
-4.74465
-4.77284
-4.79943
-4.82432
-4.84758
-4.86932
-4.88971
-4.90892
-4.92774
-4.94714
-4.95732
-4.62618
-4.61493
-4.61404
-4.62282
-4.63796
-4.65763
-4.68032
-4.70465
-4.72951
-4.75411
-4.7779
-4.80058
-4.82198
-4.84207
-4.86088
-4.87848
-4.89499
-4.91105
-4.92726
-4.93394
-4.6648
-4.65592
-4.65471
-4.66082
-4.67201
-4.68701
-4.70474
-4.72412
-4.74423
-4.76438
-4.78406
-4.80294
-4.82083
-4.83763
-4.85333
-4.86794
-4.8815
-4.89458
-4.90738
-4.91044
-4.69791
-4.69086
-4.68959
-4.69394
-4.7023
-4.71379
-4.72761
-4.74293
-4.75899
-4.7752
-4.79109
-4.80636
-4.82081
-4.83431
-4.84682
-4.85832
-4.86881
-4.87878
-4.88809
-4.88756
-4.72688
-4.72122
-4.72001
-4.72317
-4.72949
-4.73832
-4.74907
-4.76105
-4.77366
-4.78638
-4.79883
-4.81071
-4.82184
-4.83211
-4.84144
-4.8498
-4.85718
-4.86401
-4.86986
-4.86589
-4.7527
-4.74806
-4.74697
-4.74932
-4.75417
-4.761
-4.7693
-4.77854
-4.78821
-4.79787
-4.80719
-4.81592
-4.82389
-4.83101
-4.83722
-4.84248
-4.84677
-4.85051
-4.853
-4.8458
-4.77601
-4.77212
-4.77117
-4.77303
-4.77685
-4.78217
-4.78856
-4.79554
-4.8027
-4.80965
-4.81613
-4.82192
-4.82689
-4.83098
-4.83415
-4.83637
-4.83765
-4.83839
-4.83767
-4.82751
-4.79726
-4.79383
-4.79307
-4.79472
-4.7979
-4.80214
-4.80704
-4.81219
-4.81719
-4.82175
-4.82563
-4.82868
-4.83081
-4.83199
-4.83221
-4.83148
-4.82984
-4.8277
-4.82398
-4.81112
-4.81678
-4.81373
-4.81336
-4.81517
-4.81811
-4.82169
-4.82549
-4.82913
-4.83226
-4.83465
-4.8361
-4.83653
-4.83588
-4.83419
-4.83148
-4.82782
-4.82329
-4.81834
-4.81176
-4.7964
-4.83444
-4.83245
-4.83326
-4.83592
-4.83922
-4.84259
-4.84563
-4.84799
-4.84937
-4.8496
-4.84856
-4.84622
-4.8426
-4.83779
-4.8319
-4.82503
-4.81739
-4.80945
-4.79995
-4.78258
-4.84607
-4.84579
-4.84839
-4.85233
-4.85632
-4.8598
-4.86238
-4.86376
-4.86371
-4.8621
-4.85888
-4.8541
-4.84786
-4.84029
-4.83157
-4.8219
-4.81157
-4.80101
-4.78894
-4.77208
)
;

boundaryField
{
    movingWall
    {
        type            zeroGradient;
    }
    bottomWall
    {
        type            zeroGradient;
    }
    leftSide
    {
        type            zeroGradient;
    }
    rightSide
    {
        type            zeroGradient;
    }
    frontAndBack
    {
        type            empty;
    }
}


// ************************************************************************* //
