/*--------------------------------*- C++ -*----------------------------------*\
| =========                 |                                                 |
| \\      /  F ield         | OpenFOAM: The Open Source CFD Toolbox           |
|  \\    /   O peration     | Version:  v2012                                 |
|   \\  /    A nd           | Website:  www.openfoam.com                      |
|    \\/     M anipulation  |                                                 |
\*---------------------------------------------------------------------------*/
FoamFile
{
    version     2.0;
    format      ascii;
    class       surfaceScalarField;
    location    "0.3";
    object      phi;
}
// * * * * * * * * * * * * * * * * * * * * * * * * * * * * * * * * * * * * * //

dimensions      [0 3 -1 0 0 0 0];
oriented        oriented;


internalField   nonuniform List<scalar> 
760
(
3.75282e-05
1.24718e-05
2.64817e-05
1.10465e-05
1.94611e-05
7.02059e-06
1.5052e-05
4.40911e-06
1.22071e-05
2.84492e-06
1.02983e-05
1.90881e-06
8.95596e-06
1.34232e-06
7.96766e-06
9.88306e-07
7.21147e-06
7.56186e-07
6.61568e-06
5.95789e-07
6.13635e-06
4.79332e-07
5.74538e-06
3.90975e-07
5.42404e-06
3.21333e-07
5.15932e-06
2.64728e-07
4.94144e-06
2.17875e-07
4.7621e-06
1.79346e-07
4.61242e-06
1.49675e-07
4.47978e-06
1.32637e-07
4.34563e-06
1.34156e-07
1.42876e-07
5.14136e-05
1.10582e-05
4.73035e-05
1.51567e-05
4.13981e-05
1.2926e-05
3.58426e-05
9.96469e-06
3.12061e-05
7.48136e-06
2.74994e-05
5.61557e-06
2.45642e-05
4.27742e-06
2.22271e-05
3.32549e-06
2.03449e-05
2.63835e-06
1.88106e-05
2.13009e-06
1.75465e-05
1.74344e-06
1.64968e-05
1.44071e-06
1.5621e-05
1.19708e-06
1.48895e-05
9.96279e-07
1.42791e-05
8.28219e-07
1.37707e-05
6.87806e-07
1.33456e-05
5.74766e-07
1.2984e-05
4.94208e-07
1.26652e-05
4.5299e-07
4.42329e-07
5.28832e-05
8.17493e-06
5.34093e-05
1.46306e-05
5.11705e-05
1.51648e-05
4.76191e-05
1.35161e-05
4.37569e-05
1.13435e-05
4.00863e-05
9.28619e-06
3.68085e-05
7.55524e-06
3.39663e-05
6.16771e-06
3.15327e-05
5.07187e-06
2.94581e-05
4.20469e-06
2.76907e-05
3.51084e-06
2.61848e-05
2.94669e-06
2.49023e-05
2.47958e-06
2.38124e-05
2.08609e-06
2.28902e-05
1.7505e-06
2.21139e-05
1.46411e-06
2.14635e-05
1.22508e-06
2.09191e-05
1.03867e-06
2.04582e-05
9.13878e-07
8.51385e-07
5.23444e-05
5.8305e-06
5.44238e-05
1.25512e-05
5.46423e-05
1.49464e-05
5.32949e-05
1.48634e-05
5.10139e-05
1.36246e-05
4.83173e-05
1.19828e-05
4.55465e-05
1.0326e-05
4.28934e-05
8.8208e-06
4.04493e-05
7.516e-06
3.8247e-05
6.40695e-06
3.62891e-05
5.46876e-06
3.45639e-05
4.67185e-06
3.30547e-05
3.9888e-06
3.17438e-05
3.39705e-06
3.06142e-05
2.88007e-06
2.96503e-05
2.42803e-06
2.88366e-05
2.03877e-06
2.81565e-05
1.71872e-06
2.75882e-05
1.48218e-06
1.34685e-06
5.16292e-05
4.20128e-06
5.38894e-05
1.02909e-05
5.52766e-05
1.35592e-05
5.54686e-05
1.46715e-05
5.4652e-05
1.44411e-05
5.31459e-05
1.34889e-05
5.12482e-05
1.22236e-05
4.91842e-05
1.08848e-05
4.71043e-05
9.59599e-06
4.51002e-05
8.41099e-06
4.32239e-05
7.34505e-06
4.15017e-05
6.3941e-06
3.99445e-05
5.54599e-06
3.85548e-05
4.78679e-06
3.73303e-05
4.10456e-06
3.62662e-05
3.4921e-06
3.53556e-05
2.94934e-06
3.45883e-05
2.48606e-06
3.39456e-05
2.12484e-06
1.90583e-06
5.1086e-05
3.11527e-06
5.30525e-05
8.32448e-06
5.48091e-05
1.18025e-05
5.58485e-05
1.36321e-05
5.60747e-05
1.4215e-05
5.55973e-05
1.39663e-05
5.45983e-05
1.32226e-05
5.32595e-05
1.22237e-05
5.17311e-05
1.11244e-05
5.0126e-05
1.00161e-05
4.85237e-05
8.94729e-06
4.69779e-05
7.93993e-06
4.55233e-05
7.00055e-06
4.41821e-05
6.12803e-06
4.29677e-05
5.31896e-06
4.18879e-05
4.57187e-06
4.0946e-05
3.89133e-06
4.01394e-05
3.29261e-06
3.94555e-05
2.80875e-06
2.50471e-06
5.07292e-05
2.3861e-06
5.23084e-05
6.74526e-06
5.40316e-05
1.00793e-05
5.54228e-05
1.22409e-05
5.62661e-05
1.33717e-05
5.6528e-05
1.37044e-05
5.6277e-05
1.34736e-05
5.56233e-05
1.28773e-05
5.46825e-05
1.20652e-05
5.35576e-05
1.1141e-05
5.23327e-05
1.01722e-05
5.1073e-05
9.19964e-06
4.98275e-05
8.24605e-06
4.86323e-05
7.32323e-06
4.75137e-05
6.43756e-06
4.64905e-05
5.59501e-06
4.55755e-05
4.80637e-06
4.47742e-05
4.09391e-06
4.40809e-05
3.50206e-06
3.12039e-06
5.05032e-05
1.88287e-06
5.17341e-05
5.51441e-06
5.32606e-05
8.55283e-06
5.47096e-05
1.07919e-05
5.58464e-05
1.22349e-05
5.65654e-05
1.29854e-05
5.68543e-05
1.31846e-05
5.67569e-05
1.29748e-05
5.63429e-05
1.24792e-05
5.56888e-05
1.1795e-05
5.4867e-05
1.0994e-05
5.39406e-05
1.0126e-05
5.29622e-05
9.22449e-06
5.19743e-05
8.31113e-06
5.10108e-05
7.40106e-06
5.00982e-05
6.50762e-06
4.92563e-05
5.64831e-06
4.84974e-05
4.85278e-06
4.78229e-05
4.1766e-06
3.73162e-06
5.03585e-05
1.52435e-06
5.13101e-05
4.56283e-06
5.25982e-05
7.26474e-06
5.3955e-05
9.4351e-06
5.51742e-05
1.10158e-05
5.61279e-05
1.20316e-05
5.67591e-05
1.25535e-05
5.70629e-05
1.2671e-05
5.70678e-05
1.24743e-05
5.68199e-05
1.20429e-05
5.63717e-05
1.14422e-05
5.57754e-05
1.07224e-05
5.50788e-05
9.92109e-06
5.4324e-05
9.06587e-06
5.35471e-05
8.17799e-06
5.27779e-05
7.27684e-06
5.20402e-05
6.38597e-06
5.13511e-05
5.54188e-06
5.07177e-05
4.80997e-06
4.32042e-06
5.02629e-05
1.26148e-06
5.09998e-05
3.82589e-06
5.20608e-05
6.20372e-06
5.32628e-05
8.23317e-06
5.44416e-05
9.83686e-06
5.54756e-05
1.09977e-05
5.62896e-05
1.17395e-05
5.68499e-05
1.21107e-05
5.71546e-05
1.21695e-05
5.72231e-05
1.19745e-05
5.70869e-05
1.15784e-05
5.67832e-05
1.10261e-05
5.63504e-05
1.03538e-05
5.58254e-05
9.59091e-06
5.52416e-05
8.7618e-06
5.46285e-05
7.88994e-06
5.40109e-05
7.00354e-06
5.34081e-05
6.14472e-06
5.28314e-05
5.38668e-06
4.87292e-06
5.01973e-05
1.06413e-06
5.07714e-05
3.25186e-06
5.16352e-05
5.33991e-06
5.26667e-05
7.20163e-06
5.3743e-05
8.76064e-06
5.47597e-05
9.9809e-06
5.56409e-05
1.08584e-05
5.63396e-05
1.1412e-05
5.68349e-05
1.16741e-05
5.71263e-05
1.16831e-05
5.72273e-05
1.14774e-05
5.71604e-05
1.1093e-05
5.69527e-05
1.05615e-05
5.66331e-05
9.91057e-06
5.62296e-05
9.16523e-06
5.57687e-05
8.3509e-06
5.52735e-05
7.49877e-06
5.47632e-05
6.655e-06
5.42517e-05
5.89815e-06
5.37974e-06
5.0151e-05
9.13173e-07
5.06014e-05
2.80146e-06
5.13012e-05
4.6401e-06
5.217e-05
6.3328e-06
5.31184e-05
7.81227e-06
5.40626e-05
9.03666e-06
5.4934e-05
9.98699e-06
5.56829e-05
1.06631e-05
5.6279e-05
1.1078e-05
5.6709e-05
1.12531e-05
5.69729e-05
1.12135e-05
5.70809e-05
1.0985e-05
5.70494e-05
1.0593e-05
5.68987e-05
1.00613e-05
5.66502e-05
9.41371e-06
5.63254e-05
8.67568e-06
5.59443e-05
7.87989e-06
5.55245e-05
7.07481e-06
5.50807e-05
6.34194e-06
5.8357e-06
5.01173e-05
7.95898e-07
5.04736e-05
2.44515e-06
5.10401e-05
4.07354e-06
5.17639e-05
5.60906e-06
5.25806e-05
6.99556e-06
5.34254e-05
8.1919e-06
5.42401e-05
9.17221e-06
5.49784e-05
9.92479e-06
5.5607e-05
1.04494e-05
5.61061e-05
1.07541e-05
5.6467e-05
1.08525e-05
5.66907e-05
1.07613e-05
5.67848e-05
1.04988e-05
5.67617e-05
1.00844e-05
5.66363e-05
9.53906e-06
5.64247e-05
8.88728e-06
5.61427e-05
8.1619e-06
5.58054e-05
7.41219e-06
5.5427e-05
6.72032e-06
6.23923e-06
5.00925e-05
7.03374e-07
5.03773e-05
2.16035e-06
5.08374e-05
3.61346e-06
5.14369e-05
5.00953e-06
5.21297e-05
6.30284e-06
5.2866e-05
7.45556e-06
5.35988e-05
8.43937e-06
5.42876e-05
9.23602e-06
5.49006e-05
9.83642e-06
5.54156e-05
1.02391e-05
5.58196e-05
1.04485e-05
5.61075e-05
1.04734e-05
5.62806e-05
1.03257e-05
5.63449e-05
1.00201e-05
5.63096e-05
9.57438e-06
5.61855e-05
9.01135e-06
5.59843e-05
8.36309e-06
5.5718e-05
7.67853e-06
5.53996e-05
7.03867e-06
6.59143e-06
5.00746e-05
6.28789e-07
5.03059e-05
1.92907e-06
5.06825e-05
3.23679e-06
5.11789e-05
4.51318e-06
5.17608e-05
5.72092e-06
5.23906e-05
6.82581e-06
5.30308e-05
7.7991e-06
5.36479e-05
8.61893e-06
5.42138e-05
9.27055e-06
5.47071e-05
9.74582e-06
5.51133e-05
1.00423e-05
5.54242e-05
1.01625e-05
5.5637e-05
1.01129e-05
5.57532e-05
9.90389e-06
5.57774e-05
9.55018e-06
5.57161e-05
9.07264e-06
5.55772e-05
8.50208e-06
5.53694e-05
7.8863e-06
5.51042e-05
7.30386e-06
6.89519e-06
5.00624e-05
5.6635e-07
5.02554e-05
1.73607e-06
5.05688e-05
2.92343e-06
5.09819e-05
4.10008e-06
5.14685e-05
5.23436e-06
5.19996e-05
6.29467e-06
5.25463e-05
7.25236e-06
5.30818e-05
8.0835e-06
5.35826e-05
8.76975e-06
5.403e-05
9.29842e-06
5.44101e-05
9.66224e-06
5.47137e-05
9.85887e-06
5.4936e-05
9.89059e-06
5.50756e-05
9.76427e-06
5.51339e-05
9.49192e-06
5.5114e-05
9.09253e-06
5.50206e-05
8.59552e-06
5.48597e-05
8.04717e-06
5.46407e-05
7.52289e-06
7.1544e-06
5.00561e-05
5.10281e-07
5.02247e-05
1.56741e-06
5.04926e-05
2.65557e-06
5.08407e-05
3.75201e-06
5.12477e-05
4.82731e-06
5.16916e-05
5.85083e-06
5.21502e-05
6.79371e-06
5.2603e-05
7.63071e-06
5.30315e-05
8.34118e-06
5.34205e-05
8.90945e-06
5.37579e-05
9.3249e-06
5.40349e-05
9.58182e-06
5.42461e-05
9.67936e-06
5.43887e-05
9.62168e-06
5.4462e-05
9.41864e-06
5.44669e-05
9.08762e-06
5.44056e-05
8.65678e-06
5.4282e-05
8.17084e-06
5.41028e-05
7.70204e-06
7.37322e-06
5.00573e-05
4.53006e-07
5.02148e-05
1.40992e-06
5.04524e-05
2.41789e-06
5.07514e-05
3.45303e-06
5.10943e-05
4.48446e-06
5.14642e-05
5.4809e-06
5.1845e-05
6.41289e-06
5.22215e-05
7.25424e-06
5.25799e-05
7.98282e-06
5.29082e-05
8.58108e-06
5.31969e-05
9.03621e-06
5.34385e-05
9.34026e-06
5.36277e-05
9.49018e-06
5.37612e-05
9.48817e-06
5.38373e-05
9.34248e-06
5.38558e-05
9.0692e-06
5.38171e-05
8.69543e-06
5.37235e-05
8.26446e-06
5.35792e-05
7.84634e-06
7.55538e-06
5.00693e-05
3.83663e-07
5.02265e-05
1.25279e-06
5.04455e-05
2.19888e-06
5.07088e-05
3.1897e-06
5.10027e-05
4.19059e-06
5.13148e-05
5.16883e-06
5.16333e-05
6.09431e-06
5.19474e-05
6.94017e-06
5.22469e-05
7.68338e-06
5.25227e-05
8.30522e-06
5.27674e-05
8.79149e-06
5.29749e-05
9.13278e-06
5.31405e-05
9.32455e-06
5.32611e-05
9.36763e-06
5.33346e-05
9.269e-06
5.336e-05
9.04375e-06
5.33374e-05
8.71802e-06
5.32687e-05
8.33322e-06
5.31577e-05
7.95732e-06
7.7073e-06
5.00844e-05
5.02476e-05
5.04564e-05
5.06982e-05
5.09628e-05
5.12403e-05
5.15216e-05
5.1798e-05
5.20615e-05
5.23049e-05
5.25221e-05
5.27077e-05
5.28577e-05
5.2969e-05
5.30397e-05
5.30687e-05
5.30565e-05
5.30041e-05
5.29135e-05
)
;

boundaryField
{
    movingWall
    {
        type            calculated;
        value           nonuniform List<scalar> 
20
(
2.99285e-07
1.08953e-06
1.99014e-06
2.94782e-06
3.92606e-06
4.89133e-06
5.81302e-06
6.66375e-06
7.41985e-06
8.06177e-06
8.57437e-06
8.94716e-06
9.17455e-06
9.25629e-06
9.19837e-06
9.01473e-06
8.73018e-06
8.38568e-06
8.04789e-06
7.82471e-06
)
;
    }
    bottomWall
    {
        type            calculated;
        value           uniform 0;
    }
    leftSide
    {
        type            calculated;
        value           nonuniform List<scalar> 
20
(
-5e-05
-5e-05
-5e-05
-5e-05
-5e-05
-5e-05
-5e-05
-5e-05
-5e-05
-5e-05
-5e-05
-5e-05
-5e-05
-5e-05
-5e-05
-5e-05
-5e-05
-5e-05
-5e-05
-5e-05
)
;
    }
    rightSide
    {
        type            calculated;
        value           nonuniform List<scalar> 
20
(
4.20275e-06
1.23657e-05
2.00491e-05
2.70928e-05
3.33867e-05
3.88566e-05
4.34652e-05
4.72116e-05
5.01289e-05
5.22789e-05
5.37449e-05
5.46247e-05
5.50234e-05
5.50474e-05
5.48004e-05
5.43815e-05
5.3884e-05
5.3397e-05
5.30058e-05
5.27961e-05
)
;
    }
    frontAndBack
    {
        type            empty;
        value           nonuniform List<scalar> 0();
    }
}


// ************************************************************************* //
