/*--------------------------------*- C++ -*----------------------------------*\
| =========                 |                                                 |
| \\      /  F ield         | OpenFOAM: The Open Source CFD Toolbox           |
|  \\    /   O peration     | Version:  v2012                                 |
|   \\  /    A nd           | Website:  www.openfoam.com                      |
|    \\/     M anipulation  |                                                 |
\*---------------------------------------------------------------------------*/
FoamFile
{
    version     2.0;
    format      ascii;
    class       volVectorField;
    location    "0.3";
    object      U;
}
// * * * * * * * * * * * * * * * * * * * * * * * * * * * * * * * * * * * * * //

dimensions      [0 1 -1 0 0 0 0];


internalField   nonuniform List<vector> 
400
(
(0.725865 0.132329 0)
(0.621606 0.125312 0)
(0.461198 0.076894 0)
(0.340569 0.0440989 0)
(0.268218 0.025672 0)
(0.222375 0.0155941 0)
(0.190849 0.0100591 0)
(0.168081 0.0069217 0)
(0.150975 0.00504078 0)
(0.137676 0.00383442 0)
(0.127069 0.00300709 0)
(0.118463 0.00240451 0)
(0.111408 0.00194259 0)
(0.105597 0.00157403 0)
(0.10081 0.00127362 0)
(0.0968755 0.00103278 0)
(0.0936404 0.000862301 0)
(0.090865 0.000806255 0)
(0.0880312 0.000921859 0)
(0.0852767 0.00110016 0)
(0.994946 0.25173 0)
(0.998021 0.288321 0)
(0.894458 0.215242 0)
(0.770595 0.148674 0)
(0.666361 0.102147 0)
(0.583441 0.0714761 0)
(0.517741 0.0516013 0)
(0.465626 0.0385686 0)
(0.423935 0.0297466 0)
(0.390158 0.0235321 0)
(0.36246 0.0189726 0)
(0.339531 0.0154957 0)
(0.320432 0.0127505 0)
(0.304478 0.0105196 0)
(0.291152 0.00867471 0)
(0.28005 0.0071567 0)
(0.270831 0.0059751 0)
(0.263059 0.00522647 0)
(0.255897 0.00503289 0)
(0.249818 0.00516583 0)
(1.02785 0.202011 0)
(1.07524 0.311722 0)
(1.05521 0.293874 0)
(0.991494 0.24413 0)
(0.913876 0.193565 0)
(0.837064 0.151202 0)
(0.767059 0.118453 0)
(0.705808 0.0938694 0)
(0.653213 0.0754378 0)
(0.608355 0.0614394 0)
(0.570153 0.0505951 0)
(0.537607 0.0419985 0)
(0.509879 0.035021 0)
(0.486284 0.029236 0)
(0.466269 0.0243704 0)
(0.449379 0.0202792 0)
(0.435245 0.0169391 0)
(0.423407 0.0144519 0)
(0.412897 0.0129643 0)
(0.404397 0.0123362 0)
(1.02212 0.140304 0)
(1.07373 0.275629 0)
(1.09821 0.308919 0)
(1.08522 0.29271 0)
(1.04627 0.257386 0)
(0.994437 0.21837 0)
(0.938514 0.182532 0)
(0.883616 0.152037 0)
(0.832352 0.126899 0)
(0.785804 0.106374 0)
(0.744221 0.0895657 0)
(0.707454 0.0756609 0)
(0.675189 0.0639972 0)
(0.647068 0.0540722 0)
(0.622736 0.0455352 0)
(0.601874 0.0381838 0)
(0.584215 0.0319673 0)
(0.56938 0.0269935 0)
(0.55637 0.0234804 0)
(0.546052 0.0215704 0)
(1.0139 0.0987322 0)
(1.05636 0.228165 0)
(1.09608 0.288312 0)
(1.11278 0.300945 0)
(1.10537 0.286843 0)
(1.08058 0.260365 0)
(1.04527 0.230106 0)
(1.00475 0.20053 0)
(0.962734 0.173572 0)
(0.92155 0.149799 0)
(0.882559 0.129119 0)
(0.846483 0.111171 0)
(0.813655 0.0955256 0)
(0.784184 0.0817874 0)
(0.758055 0.069647 0)
(0.735196 0.0589158 0)
(0.715533 0.0495579 0)
(0.698832 0.0417243 0)
(0.68415 0.0357715 0)
(0.672568 0.032257 0)
(1.00827 0.0718959 0)
(1.04002 0.184789 0)
(1.08038 0.254215 0)
(1.11032 0.28569 0)
(1.12302 0.29047 0)
(1.11972 0.27887 0)
(1.10405 0.258585 0)
(1.07986 0.234678 0)
(1.05055 0.210143 0)
(1.01875 0.186559 0)
(0.986351 0.164631 0)
(0.954656 0.14456 0)
(0.924513 0.126293 0)
(0.896468 0.109669 0)
(0.870857 0.0945239 0)
(0.847887 0.0807572 0)
(0.827709 0.0684034 0)
(0.810265 0.0577047 0)
(0.794732 0.0492103 0)
(0.782451 0.0439664 0)
(1.00498 0.0541299 0)
(1.02804 0.149206 0)
(1.06344 0.218203 0)
(1.09669 0.259547 0)
(1.11973 0.277931 0)
(1.13066 0.279552 0)
(1.13031 0.270114 0)
(1.1207 0.254109 0)
(1.10422 0.234717 0)
(1.0831 0.214003 0)
(1.05923 0.193206 0)
(1.03411 0.173002 0)
(1.00885 0.153707 0)
(0.984287 0.135438 0)
(0.961036 0.118227 0)
(0.93954 0.102114 0)
(0.920154 0.0872475 0)
(0.902989 0.0740001 0)
(0.88738 0.0631455 0)
(0.874957 0.0562386 0)
(1.00313 0.0420777 0)
(1.01988 0.121293 0)
(1.04906 0.185285 0)
(1.08062 0.230152 0)
(1.1074 0.256866 0)
(1.12623 0.268501 0)
(1.13623 0.268701 0)
(1.13786 0.260873 0)
(1.13238 0.247803 0)
(1.12133 0.231574 0)
(1.10623 0.21364 0)
(1.08847 0.194958 0)
(1.06918 0.176121 0)
(1.04933 0.157486 0)
(1.02967 0.139278 0)
(1.01079 0.121694 0)
(0.993204 0.105019 0)
(0.977153 0.0897727 0)
(0.962135 0.0769607 0)
(0.950079 0.0686185 0)
(1.00206 0.0336488 0)
(1.0144 0.0997268 0)
(1.03781 0.15709 0)
(1.06564 0.201629 0)
(1.0923 0.232531 0)
(1.11449 0.250863 0)
(1.13049 0.258611 0)
(1.13978 0.258046 0)
(1.14268 0.251303 0)
(1.14 0.240181 0)
(1.13278 0.226088 0)
(1.12209 0.210065 0)
(1.10894 0.192851 0)
(1.09423 0.174961 0)
(1.07875 0.156773 0)
(1.06315 0.138626 0)
(1.04802 0.120935 0)
(1.03367 0.104366 0)
(1.01976 0.0901401 0)
(1.00849 0.0807056 0)
(1.00143 0.0275615 0)
(1.01066 0.0830756 0)
(1.02924 0.133701 0)
(1.05288 0.175879 0)
(1.07746 0.20813 0)
(1.10008 0.230388 0)
(1.11883 0.243489 0)
(1.13267 0.248749 0)
(1.14127 0.247625 0)
(1.14488 0.241501 0)
(1.14403 0.231574 0)
(1.13944 0.218816 0)
(1.13189 0.203988 0)
(1.12214 0.187678 0)
(1.11089 0.170358 0)
(1.09879 0.152466 0)
(1.0864 0.13453 0)
(1.07409 0.117342 0)
(1.06162 0.102302 0)
(1.05145 0.0921781 0)
(1.00103 0.0230432 0)
(1.00804 0.0701532 0)
(1.02277 0.114599 0)
(1.04243 0.153539 0)
(1.06412 0.185386 0)
(1.08551 0.209525 0)
(1.1048 0.226076 0)
(1.12077 0.235652 0)
(1.13276 0.239126 0)
(1.1406 0.237452 0)
(1.14443 0.231543 0)
(1.14465 0.222215 0)
(1.14176 0.210161 0)
(1.13635 0.195962 0)
(1.12898 0.180125 0)
(1.12021 0.16315 0)
(1.11058 0.145637 0)
(1.1004 0.12848 0)
(1.08953 0.113208 0)
(1.08064 0.102804 0)
(1.00077 0.0196171 0)
(1.00617 0.0600533 0)
(1.01786 0.0991092 0)
(1.03404 0.134603 0)
(1.05268 0.165083 0)
(1.07199 0.189728 0)
(1.09045 0.208258 0)
(1.10686 0.220815 0)
(1.12042 0.227822 0)
(1.13071 0.229854 0)
(1.13763 0.227538 0)
(1.14128 0.221494 0)
(1.14195 0.212295 0)
(1.14002 0.200463 0)
(1.13592 0.186492 0)
(1.13009 0.170901 0)
(1.12297 0.154336 0)
(1.11482 0.137749 0)
(1.10557 0.122755 0)
(1.09804 0.112442 0)
(1.00058 0.016975 0)
(1.00481 0.0520976 0)
(1.01413 0.0865777 0)
(1.02738 0.118772 0)
(1.04312 0.147449 0)
(1.06005 0.171761 0)
(1.07691 0.191229 0)
(1.09265 0.205705 0)
(1.10645 0.215291 0)
(1.1178 0.220261 0)
(1.12642 0.22099 0)
(1.13225 0.217898 0)
(1.13537 0.21142 0)
(1.13602 0.201991 0)
(1.13445 0.190061 0)
(1.131 0.176136 0)
(1.12602 0.160876 0)
(1.11968 0.145266 0)
(1.11196 0.130951 0)
(1.10578 0.12103 0)
(1.00045 0.014907 0)
(1.0038 0.0457743 0)
(1.01129 0.076426 0)
(1.02213 0.105641 0)
(1.03531 0.13241 0)
(1.04984 0.155939 0)
(1.06476 0.175673 0)
(1.07916 0.191291 0)
(1.09231 0.202683 0)
(1.10368 0.209899 0)
(1.11292 0.213106 0)
(1.11985 0.21255 0)
(1.12444 0.20853 0)
(1.12678 0.201386 0)
(1.12702 0.191504 0)
(1.12537 0.179361 0)
(1.12208 0.16561 0)
(1.11726 0.151236 0)
(1.1109 0.137881 0)
(1.106 0.128568 0)
(1.00036 0.0132599 0)
(1.00306 0.040685 0)
(1.00917 0.0681565 0)
(1.01808 0.0947791 0)
(1.02905 0.119734 0)
(1.04135 0.142305 0)
(1.05423 0.161917 0)
(1.06697 0.178158 0)
(1.07892 0.190776 0)
(1.08961 0.199665 0)
(1.09866 0.204833 0)
(1.10586 0.206383 0)
(1.1111 0.204496 0)
(1.11438 0.199417 0)
(1.11575 0.191471 0)
(1.11535 0.181095 0)
(1.11333 0.168918 0)
(1.10972 0.155912 0)
(1.10453 0.143677 0)
(1.10079 0.135105 0)
(1.0003 0.0119121 0)
(1.00256 0.0365064 0)
(1.00765 0.0613439 0)
(1.01505 0.0857754 0)
(1.02419 0.109126 0)
(1.03452 0.130745 0)
(1.04544 0.15006 0)
(1.05639 0.166608 0)
(1.06686 0.18005 0)
(1.07643 0.190169 0)
(1.08476 0.19686 0)
(1.09163 0.200115 0)
(1.09691 0.200018 0)
(1.10053 0.196736 0)
(1.10249 0.190534 0)
(1.10286 0.18181 0)
(1.10172 0.171166 0)
(1.09904 0.159543 0)
(1.09485 0.148483 0)
(1.09215 0.14071 0)
(1.00028 0.0107577 0)
(1.00229 0.0329689 0)
(1.00668 0.0556358 0)
(1.01297 0.0782761 0)
(1.02063 0.100298 0)
(1.02925 0.12109 0)
(1.03838 0.140079 0)
(1.0476 0.156773 0)
(1.0565 0.170776 0)
(1.06475 0.181798 0)
(1.07206 0.189655 0)
(1.07824 0.194259 0)
(1.08315 0.19562 0)
(1.0867 0.193845 0)
(1.08885 0.189148 0)
(1.08963 0.181892 0)
(1.08907 0.172652 0)
(1.08709 0.162337 0)
(1.08372 0.152423 0)
(1.08194 0.145449 0)
(1.00032 0.00964791 0)
(1.00228 0.0297672 0)
(1.00628 0.0506632 0)
(1.01176 0.0719015 0)
(1.01827 0.0929017 0)
(1.02548 0.113054 0)
(1.03307 0.131777 0)
(1.04071 0.148557 0)
(1.04813 0.162963 0)
(1.05505 0.174659 0)
(1.06127 0.183405 0)
(1.06661 0.189061 0)
(1.07094 0.191585 0)
(1.07417 0.191036 0)
(1.07628 0.187594 0)
(1.07723 0.181591 0)
(1.07703 0.173581 0)
(1.07558 0.164442 0)
(1.07292 0.155592 0)
(1.07197 0.14942 0)
(1.00045 0.00827323 0)
(1.00259 0.026368 0)
(1.00641 0.045779 0)
(1.01134 0.065929 0)
(1.01698 0.0861713 0)
(1.0231 0.105867 0)
(1.02947 0.124421 0)
(1.03585 0.1413 0)
(1.04204 0.156049 0)
(1.04783 0.168302 0)
(1.05307 0.177786 0)
(1.05762 0.184321 0)
(1.06138 0.187828 0)
(1.06425 0.188334 0)
(1.0662 0.185988 0)
(1.0672 0.1811 0)
(1.06723 0.174201 0)
(1.06618 0.166136 0)
(1.06417 0.158286 0)
(1.06395 0.15298 0)
(1.00062 0.00668796 0)
(1.00301 0.022997 0)
(1.00677 0.0412469 0)
(1.01138 0.0605999 0)
(1.01651 0.0803169 0)
(1.02197 0.0997244 0)
(1.02761 0.11821 0)
(1.03323 0.135226 0)
(1.03867 0.150303 0)
(1.04378 0.163053 0)
(1.04842 0.173176 0)
(1.05247 0.180469 0)
(1.05585 0.184823 0)
(1.05847 0.18624 0)
(1.0603 0.184845 0)
(1.06131 0.180924 0)
(1.06147 0.174984 0)
(1.06068 0.167845 0)
(1.05921 0.160845 0)
(1.05952 0.156159 0)
)
;

boundaryField
{
    movingWall
    {
        type            zeroGradient;
    }
    bottomWall
    {
        type            noSlip;
    }
    leftSide
    {
        type            fixedValue;
        value           uniform (1 0 0);
    }
    rightSide
    {
        type            zeroGradient;
    }
    frontAndBack
    {
        type            empty;
    }
}


// ************************************************************************* //
