/*--------------------------------*- C++ -*----------------------------------*\
| =========                 |                                                 |
| \\      /  F ield         | OpenFOAM: The Open Source CFD Toolbox           |
|  \\    /   O peration     | Version:  v2012                                 |
|   \\  /    A nd           | Website:  www.openfoam.com                      |
|    \\/     M anipulation  |                                                 |
\*---------------------------------------------------------------------------*/
FoamFile
{
    version     2.0;
    format      ascii;
    class       volScalarField;
    location    "0.5";
    object      p;
}
// * * * * * * * * * * * * * * * * * * * * * * * * * * * * * * * * * * * * * //

dimensions      [0 2 -2 0 0 0 0];


internalField   nonuniform List<scalar> 
800
(
9.2453e-07
0.00606879
0.0191449
0.0344983
0.0508663
0.0681425
0.086366
0.105715
0.126531
0.149326
0.174787
0.203789
0.237413
0.276901
0.322976
0.374355
0.431719
0.517523
0.655736
0.609309
-0.0139972
-0.0106318
-0.000110976
0.0126408
0.0262319
0.0403294
0.0547077
0.0692158
0.0837125
0.0979596
0.111484
0.1234
0.132206
0.13562
0.130327
0.111597
0.0744827
0.0185655
-0.0550877
-0.17397
-0.03538
-0.0346853
-0.0271675
-0.0174886
-0.00718784
0.00317473
0.0131204
0.0221926
0.0298629
0.0354243
0.0379049
0.0360173
0.0281744
0.0125996
-0.0124978
-0.0487223
-0.0971825
-0.158307
-0.232744
-0.321269
-0.0591272
-0.0596018
-0.0542632
-0.0471415
-0.0397377
-0.0327331
-0.0267556
-0.0224304
-0.0204532
-0.0216516
-0.0270012
-0.0375899
-0.0545264
-0.0787989
-0.111106
-0.151673
-0.200093
-0.255362
-0.316162
-0.380535
-0.0845341
-0.0853541
-0.0816917
-0.0768141
-0.0720728
-0.0681879
-0.0658437
-0.065716
-0.0685128
-0.0749943
-0.0859458
-0.102108
-0.124069
-0.152144
-0.186254
-0.225849
-0.269885
-0.316923
-0.365311
-0.413285
-0.111309
-0.11216
-0.109908
-0.107052
-0.104748
-0.10369
-0.104541
-0.107933
-0.114477
-0.124761
-0.139294
-0.158442
-0.182342
-0.210827
-0.243396
-0.279223
-0.317225
-0.356185
-0.394889
-0.432218
-0.138992
-0.139715
-0.138651
-0.137575
-0.137418
-0.138803
-0.142307
-0.148456
-0.157714
-0.170456
-0.18693
-0.207201
-0.231107
-0.258241
-0.287965
-0.319464
-0.351827
-0.384141
-0.415586
-0.445485
-0.167154
-0.167655
-0.16758
-0.168038
-0.16972
-0.173139
-0.178755
-0.186956
-0.19804
-0.21219
-0.229445
-0.249666
-0.272534
-0.297553
-0.324097
-0.351464
-0.378945
-0.405892
-0.431768
-0.456167
-0.195458
-0.195688
-0.196436
-0.1982
-0.201426
-0.206497
-0.213736
-0.223386
-0.235591
-0.250377
-0.267633
-0.287107
-0.30841
-0.331053
-0.354481
-0.378134
-0.401484
-0.424085
-0.445591
-0.465759
-0.22363
-0.223572
-0.225011
-0.22788
-0.232386
-0.238771
-0.247216
-0.257826
-0.270615
-0.285492
-0.302253
-0.320591
-0.340112
-0.360376
-0.380923
-0.401322
-0.421194
-0.440237
-0.458231
-0.475034
-0.251442
-0.251098
-0.253124
-0.256936
-0.2625
-0.269917
-0.279231
-0.290425
-0.303412
-0.318017
-0.333989
-0.351006
-0.368706
-0.386712
-0.404662
-0.422234
-0.439161
-0.455245
-0.470351
-0.484401
-0.278698
-0.278081
-0.28063
-0.285262
-0.291711
-0.299941
-0.309871
-0.32138
-0.334302
-0.348413
-0.363442
-0.379082
-0.395017
-0.410939
-0.426571
-0.441681
-0.45609
-0.469671
-0.482351
-0.494095
-0.305224
-0.304361
-0.307406
-0.312784
-0.320002
-0.328893
-0.339263
-0.350909
-0.363606
-0.377105
-0.391136
-0.405421
-0.419696
-0.433719
-0.447288
-0.460242
-0.47247
-0.483901
-0.494502
-0.504269
-0.330853
-0.329794
-0.333356
-0.33946
-0.347388
-0.356851
-0.36756
-0.379242
-0.391637
-0.404483
-0.417526
-0.430527
-0.44327
-0.455575
-0.467304
-0.478356
-0.488671
-0.498221
-0.507006
-0.515044
-0.355398
-0.354231
-0.358388
-0.365256
-0.373895
-0.383908
-0.394922
-0.406613
-0.418695
-0.43091
-0.443025
-0.454839
-0.466187
-0.476945
-0.487027
-0.496384
-0.504998
-0.512876
-0.520043
-0.526537
-0.378629
-0.377495
-0.382382
-0.390109
-0.399516
-0.410113
-0.42146
-0.433195
-0.44502
-0.456684
-0.467978
-0.478739
-0.488846
-0.498223
-0.506831
-0.514666
-0.521745
-0.528107
-0.533802
-0.538885
-0.400304
-0.399483
-0.405324
-0.414059
-0.424329
-0.435572
-0.447304
-0.459142
-0.470786
-0.481999
-0.4926
-0.502461
-0.511499
-0.519679
-0.527
-0.53349
-0.539199
-0.544191
-0.548536
-0.552308
-0.420316
-0.420519
-0.427772
-0.437798
-0.449112
-0.46112
-0.473321
-0.485325
-0.49684
-0.507649
-0.517602
-0.526608
-0.53463
-0.541674
-0.547779
-0.553009
-0.557439
-0.561154
-0.564237
-0.566771
-0.438163
-0.440586
-0.449905
-0.461644
-0.474333
-0.487414
-0.5004
-0.512902
-0.524623
-0.535351
-0.544944
-0.553332
-0.560502
-0.566492
-0.571382
-0.575276
-0.578298
-0.580582
-0.582262
-0.583476
-0.44968
-0.45406
-0.464849
-0.477834
-0.491589
-0.505625
-0.5195
-0.532828
-0.545305
-0.556703
-0.566864
-0.575701
-0.583185
-0.58934
-0.594227
-0.597935
-0.600569
-0.60225
-0.6031
-0.603163
-0.353256
-0.87877
-1.09306
-1.19111
-1.22616
-1.21673
-1.18246
-1.13894
-1.09502
-1.05465
-1.01905
-0.988101
-0.961178
-0.937627
-0.916958
-0.898914
-0.883514
-0.871184
-0.86294
-0.858221
-0.384011
-0.567849
-0.709018
-0.81885
-0.899464
-0.951289
-0.978817
-0.988372
-0.985806
-0.975791
-0.961736
-0.945915
-0.929731
-0.914006
-0.899247
-0.885835
-0.874168
-0.864845
-0.859033
-0.855469
-0.421387
-0.527207
-0.627393
-0.714324
-0.785079
-0.838803
-0.876397
-0.90006
-0.912549
-0.916627
-0.914762
-0.90898
-0.900841
-0.891502
-0.881828
-0.872514
-0.864183
-0.857569
-0.854131
-0.852151
-0.447226
-0.516965
-0.587188
-0.65352
-0.712826
-0.762979
-0.802947
-0.832799
-0.853441
-0.866255
-0.872799
-0.874589
-0.872983
-0.869135
-0.86401
-0.858445
-0.853198
-0.849105
-0.847952
-0.847816
-0.460861
-0.510361
-0.561942
-0.613402
-0.662476
-0.707148
-0.7459
-0.777872
-0.802871
-0.821262
-0.833798
-0.841441
-0.84522
-0.846136
-0.845123
-0.843048
-0.84073
-0.839064
-0.840119
-0.841931
-0.468665
-0.506563
-0.546649
-0.587759
-0.628471
-0.667311
-0.702936
-0.734294
-0.760728
-0.782012
-0.798308
-0.81008
-0.817987
-0.822794
-0.825301
-0.826326
-0.826681
-0.827269
-0.830368
-0.834045
-0.474473
-0.504621
-0.536775
-0.57031
-0.604354
-0.637894
-0.669879
-0.699339
-0.725495
-0.747845
-0.76619
-0.780625
-0.791485
-0.799282
-0.804647
-0.808289
-0.810968
-0.813553
-0.818449
-0.823736
-0.479741
-0.504275
-0.530583
-0.55832
-0.586954
-0.615804
-0.644097
-0.671032
-0.695874
-0.718032
-0.737124
-0.753004
-0.765756
-0.775671
-0.783198
-0.788918
-0.793506
-0.797759
-0.804138
-0.810638
-0.485205
-0.505453
-0.527239
-0.550372
-0.574522
-0.59924
-0.62397
-0.648094
-0.670982
-0.692065
-0.710896
-0.727196
-0.740883
-0.75207
-0.761044
-0.768253
-0.774271
-0.779796
-0.787284
-0.794489
-0.491206
-0.508044
-0.526196
-0.545554
-0.565915
-0.586978
-0.608353
-0.629574
-0.650133
-0.669533
-0.687334
-0.703209
-0.716981
-0.728639
-0.738343
-0.746418
-0.753332
-0.759671
-0.767846
-0.775168
-0.497895
-0.511935
-0.527076
-0.54326
-0.560357
-0.578164
-0.596406
-0.614738
-0.632765
-0.650074
-0.666275
-0.681045
-0.694167
-0.705562
-0.715297
-0.723602
-0.730845
-0.737495
-0.745896
-0.752701
-0.505342
-0.517023
-0.529608
-0.543062
-0.557298
-0.572175
-0.587497
-0.603008
-0.618406
-0.633362
-0.647548
-0.660676
-0.672533
-0.683012
-0.692127
-0.700041
-0.707035
-0.713469
-0.721615
-0.727261
-0.513587
-0.523234
-0.533598
-0.544654
-0.556339
-0.56855
-0.581141
-0.59392
-0.606656
-0.619093
-0.630968
-0.642043
-0.652133
-0.661134
-0.669043
-0.675979
-0.682166
-0.68786
-0.695274
-0.699143
-0.522669
-0.530521
-0.538914
-0.547822
-0.557193
-0.566945
-0.576962
-0.587096
-0.597171
-0.606988
-0.616343
-0.625053
-0.632972
-0.640025
-0.646214
-0.651647
-0.656505
-0.660962
-0.667193
-0.668727
-0.532644
-0.538879
-0.545483
-0.552426
-0.559658
-0.567105
-0.57467
-0.582234
-0.589657
-0.596786
-0.603469
-0.609572
-0.615001
-0.619717
-0.623754
-0.627226
-0.630297
-0.633078
-0.637724
-0.636465
-0.543599
-0.548343
-0.553288
-0.558395
-0.563607
-0.568852
-0.574044
-0.579081
-0.583848
-0.588231
-0.59212
-0.595432
-0.59812
-0.600197
-0.601736
-0.60288
-0.603796
-0.60455
-0.607292
-0.602917
-0.555709
-0.559031
-0.56238
-0.565706
-0.568947
-0.572033
-0.574883
-0.577407
-0.579514
-0.581114
-0.582134
-0.582531
-0.582307
-0.581522
-0.580299
-0.578826
-0.57728
-0.575713
-0.57628
-0.568587
-0.568923
-0.570886
-0.572701
-0.574313
-0.575659
-0.576664
-0.577245
-0.577312
-0.576775
-0.575559
-0.573611
-0.57092
-0.567533
-0.563567
-0.559213
-0.554718
-0.550301
-0.546031
-0.544066
-0.532839
-0.584392
-0.585076
-0.585445
-0.585391
-0.584813
-0.58361
-0.581688
-0.578957
-0.575345
-0.5708
-0.565311
-0.558921
-0.551752
-0.544012
-0.535995
-0.528055
-0.520492
-0.513438
-0.508726
-0.493732
-0.60234
-0.600654
-0.598288
-0.595292
-0.591604
-0.587158
-0.581896
-0.575765
-0.568723
-0.560752
-0.551883
-0.542216
-0.531942
-0.521358
-0.510859
-0.500897
-0.491856
-0.483976
-0.477792
-0.459627
)
;

boundaryField
{
    zeroGradientPlanes
    {
        type            zeroGradient;
    }
    inlet
    {
        type            zeroGradient;
    }
    plate
    {
        type            zeroGradient;
    }
    frontAndBack
    {
        type            empty;
    }
}


// ************************************************************************* //
