/*--------------------------------*- C++ -*----------------------------------*\
| =========                 |                                                 |
| \\      /  F ield         | OpenFOAM: The Open Source CFD Toolbox           |
|  \\    /   O peration     | Version:  v2012                                 |
|   \\  /    A nd           | Website:  www.openfoam.com                      |
|    \\/     M anipulation  |                                                 |
\*---------------------------------------------------------------------------*/
FoamFile
{
    version     2.0;
    format      ascii;
    class       volVectorField;
    location    "0.5";
    object      U;
}
// * * * * * * * * * * * * * * * * * * * * * * * * * * * * * * * * * * * * * //

dimensions      [0 1 -1 0 0 0 0];


internalField   nonuniform List<vector> 
800
(
(0.997911 0.0158008 0)
(0.989606 0.0563022 0)
(0.978972 0.100167 0)
(0.967953 0.146134 0)
(0.956999 0.193917 0)
(0.946238 0.243654 0)
(0.93574 0.295629 0)
(0.925522 0.35008 0)
(0.915561 0.407032 0)
(0.905799 0.466136 0)
(0.896147 0.526504 0)
(0.886474 0.586535 0)
(0.876612 0.643766 0)
(0.86636 0.694726 0)
(0.855405 0.734834 0)
(0.842921 0.758393 0)
(0.827668 0.758754 0)
(0.811533 0.728334 0)
(0.80254 0.657691 0)
(0.784388 0.535243 0)
(0.998233 0.0188746 0)
(0.990644 0.0615518 0)
(0.980565 0.106515 0)
(0.970098 0.15321 0)
(0.959775 0.201572 0)
(0.949796 0.251829 0)
(0.940311 0.304305 0)
(0.931445 0.359253 0)
(0.923331 0.416703 0)
(0.916138 0.476305 0)
(0.910089 0.537163 0)
(0.905465 0.597686 0)
(0.902583 0.655473 0)
(0.901736 0.707261 0)
(0.90303 0.748965 0)
(0.906059 0.775925 0)
(0.909696 0.783435 0)
(0.912591 0.767226 0)
(0.912889 0.722751 0)
(0.902854 0.644848 0)
(0.998672 0.0217301 0)
(0.992228 0.0668538 0)
(0.983197 0.113018 0)
(0.973787 0.160388 0)
(0.96465 0.209157 0)
(0.956097 0.259633 0)
(0.948396 0.312135 0)
(0.941815 0.366862 0)
(0.936659 0.423741 0)
(0.933294 0.482271 0)
(0.932131 0.541363 0)
(0.933587 0.599228 0)
(0.937987 0.653324 0)
(0.945436 0.700441 0)
(0.955642 0.736936 0)
(0.967746 0.759164 0)
(0.98025 0.76412 0)
(0.991082 0.750074 0)
(0.997489 0.716918 0)
(0.99587 0.666642 0)
(0.999059 0.0237687 0)
(0.993888 0.0709811 0)
(0.986275 0.118165 0)
(0.978338 0.166004 0)
(0.970823 0.21489 0)
(0.964152 0.265175 0)
(0.958701 0.317132 0)
(0.954852 0.370848 0)
(0.953019 0.426093 0)
(0.953641 0.482186 0)
(0.957137 0.537878 0)
(0.963822 0.591312 0)
(0.973793 0.640082 0)
(0.986804 0.681437 0)
(1.00216 0.712614 0)
(1.01865 0.731281 0)
(1.03468 0.735995 0)
(1.04836 0.726563 0)
(1.05777 0.704196 0)
(1.06128 0.671518 0)
(0.999362 0.0252494 0)
(0.995447 0.0742011 0)
(0.989468 0.122239 0)
(0.98329 0.170373 0)
(0.977691 0.219132 0)
(0.973168 0.268882 0)
(0.970173 0.319821 0)
(0.969145 0.371915 0)
(0.970523 0.42479 0)
(0.974713 0.477638 0)
(0.982023 0.529166 0)
(0.992566 0.577625 0)
(1.00617 0.620949 0)
(1.02229 0.656999 0)
(1.03999 0.68388 0)
(1.05803 0.700278 0)
(1.07496 0.705715 0)
(1.08936 0.70067 0)
(1.10005 0.686516 0)
(1.10629 0.665312 0)
(0.999596 0.0263054 0)
(0.996862 0.0766177 0)
(0.992594 0.125298 0)
(0.988318 0.173532 0)
(0.984776 0.221927 0)
(0.982494 0.27083 0)
(0.981944 0.320366 0)
(0.983567 0.37039 0)
(0.987759 0.420429 0)
(0.994826 0.46963 0)
(1.00492 0.516765 0)
(1.01794 0.560312 0)
(1.03351 0.598625 0)
(1.05093 0.63016 0)
(1.06924 0.653727 0)
(1.0873 0.66869 0)
(1.10399 0.675085 0)
(1.1183 0.673594 0)
(1.12955 0.665419 0)
(1.13737 0.652069 0)
(0.99978 0.0269867 0)
(0.998122 0.0782327 0)
(0.995543 0.127289 0)
(0.99319 0.175405 0)
(0.991715 0.223207 0)
(0.99162 0.271011 0)
(0.993352 0.318868 0)
(0.997303 0.366558 0)
(1.00379 0.413562 0)
(1.01299 0.459055 0)
(1.0249 0.501952 0)
(1.03928 0.541014 0)
(1.05564 0.575008 0)
(1.07323 0.602892 0)
(1.09118 0.62398 0)
(1.10857 0.63805 0)
(1.12453 0.645364 0)
(1.13839 0.646599 0)
(1.14973 0.642723 0)
(1.15838 0.634843 0)
(0.999924 0.0273383 0)
(0.999231 0.0790788 0)
(0.998256 0.128221 0)
(0.997758 0.175995 0)
(0.998261 0.22301 0)
(1.0002 0.269535 0)
(1.00396 0.315563 0)
(1.00985 0.360827 0)
(1.01809 0.404812 0)
(1.02875 0.446776 0)
(1.04171 0.485814 0)
(1.05664 0.520969 0)
(1.07299 0.551368 0)
(1.0901 0.576349 0)
(1.10721 0.595565 0)
(1.12359 0.609026 0)
(1.13861 0.617072 0)
(1.15182 0.620309 0)
(1.16296 0.619505 0)
(1.17193 0.615483 0)
(1.00004 0.0274055 0)
(1.0002 0.0792176 0)
(1.00071 0.128154 0)
(1.00194 0.17538 0)
(1.00427 0.221454 0)
(1.00803 0.266592 0)
(1.01351 0.310742 0)
(1.02095 0.353623 0)
(1.03046 0.394754 0)
(1.04203 0.433503 0)
(1.05545 0.469152 0)
(1.07035 0.500998 0)
(1.08623 0.528452 0)
(1.1025 0.551129 0)
(1.11853 0.568899 0)
(1.13377 0.581891 0)
(1.14776 0.590464 0)
(1.1602 0.595136 0)
(1.17091 0.596519 0)
(1.17985 0.595243 0)
(1.00013 0.0272271 0)
(1.00106 0.0787169 0)
(1.00291 0.127173 0)
(1.00572 0.173665 0)
(1.00968 0.218686 0)
(1.01501 0.262393 0)
(1.02192 0.304702 0)
(1.03054 0.345333 0)
(1.04091 0.383863 0)
(1.05294 0.419774 0)
(1.06639 0.452523 0)
(1.0809 0.481614 0)
(1.09603 0.506679 0)
(1.11126 0.527524 0)
(1.12611 0.544153 0)
(1.14017 0.556756 0)
(1.1531 0.565678 0)
(1.16469 0.571362 0)
(1.17483 0.5743 0)
(1.18351 0.57499 0)
(1.00021 0.0268341 0)
(1.00182 0.0776405 0)
(1.00489 0.125366 0)
(1.00912 0.170971 0)
(1.0145 0.214866 0)
(1.02117 0.257151 0)
(1.02921 0.297714 0)
(1.03868 0.336289 0)
(1.04956 0.372516 0)
(1.06172 0.405984 0)
(1.07491 0.436299 0)
(1.0888 0.463132 0)
(1.10301 0.486274 0)
(1.11712 0.505662 0)
(1.13077 0.52138 0)
(1.14364 0.533649 0)
(1.15549 0.542787 0)
(1.16619 0.549176 0)
(1.17566 0.553221 0)
(1.1839 0.555323 0)
(1.00028 0.0262483 0)
(1.00251 0.0760434 0)
(1.0067 0.122819 0)
(1.01217 0.167416 0)
(1.0188 0.210152 0)
(1.02656 0.251066 0)
(1.03547 0.290021 0)
(1.04552 0.326769 0)
(1.05664 0.361006 0)
(1.06867 0.392418 0)
(1.0814 0.420728 0)
(1.09452 0.445736 0)
(1.10772 0.467346 0)
(1.12069 0.485582 0)
(1.13313 0.500578 0)
(1.14483 0.512561 0)
(1.15562 0.521827 0)
(1.16539 0.528706 0)
(1.17411 0.533541 0)
(1.1818 0.536665 0)
(1.00036 0.0254817 0)
(1.00318 0.0739682 0)
(1.00838 0.119608 0)
(1.01497 0.163111 0)
(1.02264 0.20469 0)
(1.03129 0.244318 0)
(1.04084 0.281832 0)
(1.05124 0.316997 0)
(1.06238 0.349558 0)
(1.07412 0.379278 0)
(1.08624 0.405972 0)
(1.0985 0.429532 0)
(1.11066 0.449942 0)
(1.12248 0.467282 0)
(1.13374 0.481714 0)
(1.14429 0.493466 0)
(1.15401 0.502809 0)
(1.16285 0.510036 0)
(1.17078 0.515443 0)
(1.17783 0.519312 0)
(1.00044 0.0245346 0)
(1.00386 0.0714421 0)
(1.01 0.115797 0)
(1.01757 0.158157 0)
(1.02613 0.198613 0)
(1.03548 0.237065 0)
(1.04548 0.27332 0)
(1.05604 0.30715 0)
(1.06705 0.338337 0)
(1.07835 0.366703 0)
(1.08978 0.392129 0)
(1.10114 0.414573 0)
(1.11225 0.434071 0)
(1.12293 0.450737 0)
(1.13303 0.464749 0)
(1.14245 0.47633 0)
(1.15113 0.485732 0)
(1.15902 0.493218 0)
(1.16613 0.499049 0)
(1.17248 0.503472 0)
(1.00055 0.023395 0)
(1.00458 0.0684797 0)
(1.01161 0.11144 0)
(1.02006 0.152641 0)
(1.02936 0.192036 0)
(1.03924 0.22944 0)
(1.04953 0.264624 0)
(1.06012 0.297363 0)
(1.07087 0.327463 0)
(1.08165 0.354785 0)
(1.09234 0.379256 0)
(1.10277 0.400876 0)
(1.11284 0.419716 0)
(1.1224 0.435909 0)
(1.13138 0.449638 0)
(1.13971 0.461118 0)
(1.14736 0.470586 0)
(1.15431 0.478283 0)
(1.16058 0.484444 0)
(1.1662 0.48929 0)
(1.0007 0.0220414 0)
(1.00539 0.0650959 0)
(1.01327 0.106598 0)
(1.02248 0.146662 0)
(1.03238 0.185077 0)
(1.04265 0.221569 0)
(1.05311 0.255869 0)
(1.0636 0.287746 0)
(1.07402 0.31702 0)
(1.08424 0.343577 0)
(1.09417 0.367372 0)
(1.10369 0.388431 0)
(1.11274 0.406841 0)
(1.12123 0.422743 0)
(1.12913 0.43632 0)
(1.1364 0.44778 0)
(1.14304 0.457344 0)
(1.14906 0.465235 0)
(1.15449 0.471671 0)
(1.15936 0.476855 0)
(1.0009 0.0204368 0)
(1.00633 0.061302 0)
(1.01499 0.101337 0)
(1.02483 0.140321 0)
(1.03519 0.177857 0)
(1.04574 0.213578 0)
(1.05626 0.247175 0)
(1.06659 0.278404 0)
(1.07664 0.307091 0)
(1.08629 0.333134 0)
(1.09548 0.3565 0)
(1.10414 0.377226 0)
(1.11222 0.395407 0)
(1.11971 0.411183 0)
(1.12658 0.424733 0)
(1.13285 0.436253 0)
(1.13853 0.445953 0)
(1.14366 0.454043 0)
(1.14826 0.460727 0)
(1.15238 0.466195 0)
(1.00118 0.0184623 0)
(1.00738 0.0569902 0)
(1.0167 0.0955737 0)
(1.02704 0.133545 0)
(1.03773 0.170302 0)
(1.04844 0.205388 0)
(1.05895 0.238457 0)
(1.0691 0.269249 0)
(1.07878 0.297584 0)
(1.0879 0.323361 0)
(1.09641 0.346546 0)
(1.10429 0.367173 0)
(1.11151 0.385332 0)
(1.11809 0.401156 0)
(1.12404 0.414812 0)
(1.1294 0.426488 0)
(1.1342 0.43638 0)
(1.13849 0.444689 0)
(1.14232 0.451611 0)
(1.14573 0.457329 0)
(1.0015 0.0158906 0)
(1.00844 0.0519093 0)
(1.01824 0.0890273 0)
(1.02891 0.126004 0)
(1.0398 0.162026 0)
(1.05061 0.196551 0)
(1.06109 0.2292 0)
(1.07108 0.2597 0)
(1.08046 0.287864 0)
(1.08915 0.31358 0)
(1.09713 0.336806 0)
(1.10437 0.357565 0)
(1.11089 0.375931 0)
(1.11672 0.392019 0)
(1.1219 0.405978 0)
(1.12648 0.417976 0)
(1.13053 0.428196 0)
(1.1341 0.436821 0)
(1.13726 0.444034 0)
(1.14005 0.450009 0)
(1.00173 0.0132341 0)
(1.00913 0.0471613 0)
(1.01919 0.0831052 0)
(1.03002 0.119271 0)
(1.04103 0.154677 0)
(1.0519 0.188722 0)
(1.06238 0.221004 0)
(1.0723 0.25124 0)
(1.08154 0.27924 0)
(1.09002 0.304888 0)
(1.09771 0.328138 0)
(1.1046 0.349002 0)
(1.11072 0.367543 0)
(1.11611 0.383864 0)
(1.12081 0.398099 0)
(1.1249 0.410403 0)
(1.12843 0.42094 0)
(1.13148 0.429882 0)
(1.13409 0.437401 0)
(1.13635 0.443664 0)
(0.638781 0.34947 0)
(0.492876 0.221148 0)
(0.370426 0.134968 0)
(0.281583 0.0795007 0)
(0.218869 0.0450857 0)
(0.174576 0.0246809 0)
(0.143433 0.0132124 0)
(0.121436 0.00711648 0)
(0.105522 0.00403669 0)
(0.09356 0.00252707 0)
(0.0841901 0.00177115 0)
(0.0765914 0.00134948 0)
(0.0702876 0.00106811 0)
(0.0650105 0.000846252 0)
(0.0606153 0.000652467 0)
(0.057035 0.000474046 0)
(0.0542578 0.000305799 0)
(0.0522957 0.000154395 0)
(0.0510318 5.97735e-05 0)
(0.0504662 -1.33553e-05 0)
(0.866167 0.533957 0)
(0.804404 0.419759 0)
(0.727361 0.316034 0)
(0.646364 0.229469 0)
(0.568063 0.161641 0)
(0.496352 0.111479 0)
(0.433414 0.0761972 0)
(0.379875 0.0523149 0)
(0.3352 0.0365226 0)
(0.298241 0.0261371 0)
(0.267682 0.0192093 0)
(0.242308 0.0144374 0)
(0.221126 0.0110043 0)
(0.203398 0.00841404 0)
(0.188621 0.00636688 0)
(0.17649 0.0046783 0)
(0.166861 0.00323942 0)
(0.159679 0.0020225 0)
(0.154657 0.00114647 0)
(0.15187 0.000628327 0)
(0.983005 0.602603 0)
(0.956313 0.528408 0)
(0.914745 0.448497 0)
(0.860995 0.369212 0)
(0.799079 0.295648 0)
(0.733236 0.231304 0)
(0.667331 0.177835 0)
(0.604396 0.135252 0)
(0.546419 0.102431 0)
(0.494389 0.0776828 0)
(0.448535 0.0592127 0)
(0.408601 0.0454065 0)
(0.3741 0.0349595 0)
(0.344504 0.0268863 0)
(0.319363 0.0204741 0)
(0.298362 0.0152227 0)
(0.281337 0.0108073 0)
(0.268243 0.00709796 0)
(0.258725 0.00428307 0)
(0.253 0.0026417 0)
(1.05804 0.630695 0)
(1.04659 0.581033 0)
(1.02492 0.522944 0)
(0.99246 0.459602 0)
(0.950023 0.394646 0)
(0.899468 0.3316 0)
(0.843363 0.273355 0)
(0.784518 0.221827 0)
(0.725557 0.177889 0)
(0.668607 0.141505 0)
(0.615174 0.112003 0)
(0.566167 0.0883649 0)
(0.522027 0.0694772 0)
(0.482891 0.0542909 0)
(0.448748 0.0419058 0)
(0.419559 0.0316027 0)
(0.395351 0.0228666 0)
(0.37623 0.015459 0)
(0.361916 0.0096331 0)
(0.352843 0.00608582 0)
(1.10802 0.638366 0)
(1.10465 0.604539 0)
(1.09455 0.563013 0)
(1.07642 0.514912 0)
(1.04959 0.462096 0)
(1.01423 0.406913 0)
(0.971295 0.351852 0)
(0.922437 0.299186 0)
(0.869696 0.250676 0)
(0.815206 0.207423 0)
(0.760935 0.169861 0)
(0.708509 0.137868 0)
(0.659161 0.110932 0)
(0.613759 0.0883339 0)
(0.572899 0.069291 0)
(0.53702 0.0530677 0)
(0.506508 0.0390755 0)
(0.481778 0.0270217 0)
(0.462767 0.0172479 0)
(0.450208 0.0109995 0)
(1.14198 0.634412 0)
(1.14328 0.611459 0)
(1.14017 0.582132 0)
(1.13135 0.546551 0)
(1.11576 0.5054 0)
(1.09273 0.459904 0)
(1.06217 0.411705 0)
(1.02462 0.362655 0)
(0.981191 0.31456 0)
(0.933416 0.268956 0)
(0.883053 0.22695 0)
(0.831869 0.189158 0)
(0.781488 0.155739 0)
(0.7333 0.126485 0)
(0.688454 0.100948 0)
(0.647901 0.0785735 0)
(0.612476 0.0588459 0)
(0.583002 0.0415105 0)
(0.559745 0.027049 0)
(0.543821 0.0173708 0)
(1.16465 0.623601 0)
(1.16875 0.608275 0)
(1.16997 0.587854 0)
(1.16723 0.562024 0)
(1.15946 0.530815 0)
(1.14574 0.494671 0)
(1.12542 0.454451 0)
(1.0983 0.411368 0)
(1.0647 0.366846 0)
(1.0254 0.322348 0)
(0.981641 0.279186 0)
(0.934903 0.238387 0)
(0.886806 0.200612 0)
(0.838949 0.166147 0)
(0.792829 0.134958 0)
(0.749811 0.106789 0)
(0.711159 0.0813197 0)
(0.678124 0.0584298 0)
(0.651355 0.0388036 0)
(0.632413 0.0251074 0)
(1.1791 0.60877 0)
(1.18484 0.598895 0)
(1.18873 0.585009 0)
(1.18994 0.566637 0)
(1.18753 0.543484 0)
(1.18056 0.515519 0)
(1.1682 0.483033 0)
(1.14984 0.446656 0)
(1.12525 0.407312 0)
(1.09459 0.366129 0)
(1.0585 0.324304 0)
(1.01801 0.282951 0)
(0.974461 0.242987 0)
(0.929366 0.205046 0)
(0.884333 0.169457 0)
(0.840966 0.136293 0)
(0.800846 0.105491 0)
(0.7656 0.077131 0)
(0.736244 0.0521555 0)
(0.714814 0.0340462 0)
(1.18741 0.591771 0)
(1.19403 0.585838 0)
(1.19953 0.576774 0)
(1.20325 0.564067 0)
(1.20443 0.547281 0)
(1.20223 0.52613 0)
(1.1958 0.500536 0)
(1.18439 0.470686 0)
(1.16743 0.437048 0)
(1.14467 0.400342 0)
(1.11625 0.361476 0)
(1.08269 0.321433 0)
(1.04494 0.281156 0)
(1.00426 0.241439 0)
(0.962141 0.202859 0)
(0.920239 0.165759 0)
(0.8803 0.130335 0)
(0.844212 0.0968957 0)
(0.813286 0.0666694 0)
(0.79003 0.0439714 0)
(1.19109 0.573853 0)
(1.19809 0.570795 0)
(1.20445 0.565301 0)
(1.20968 0.556882 0)
(1.21318 0.545063 0)
(1.21424 0.529433 0)
(1.21209 0.5097 0)
(1.20596 0.48575 0)
(1.19514 0.45769 0)
(1.17914 0.425863 0)
(1.15772 0.390838 0)
(1.131 0.353343 0)
(1.09951 0.31419 0)
(1.06415 0.274167 0)
(1.02618 0.233952 0)
(0.987145 0.194066 0)
(0.948791 0.154909 0)
(0.913133 0.117007 0)
(0.881653 0.0818746 0)
(0.857301 0.054634 0)
(1.19126 0.555881 0)
(1.19828 0.554929 0)
(1.20499 0.552087 0)
(1.21103 0.546911 0)
(1.21593 0.538935 0)
(1.21912 0.527704 0)
(1.21994 0.512813 0)
(1.21766 0.49396 0)
(1.21159 0.470996 0)
(1.20107 0.443959 0)
(1.18567 0.413095 0)
(1.16521 0.378844 0)
(1.13984 0.341793 0)
(1.11012 0.302602 0)
(1.07699 0.261927 0)
(1.04177 0.220355 0)
(1.00609 0.178417 0)
(0.971945 0.13681 0)
(0.940848 0.0973038 0)
(0.916144 0.0657696 0)
(1.18877 0.538459 0)
(1.19557 0.539058 0)
(1.20227 0.538193 0)
(1.20861 0.535469 0)
(1.21425 0.530451 0)
(1.21872 0.522684 0)
(1.22148 0.511715 0)
(1.2219 0.497137 0)
(1.21932 0.47863 0)
(1.21308 0.456006 0)
(1.20262 0.429243 0)
(1.18757 0.398503 0)
(1.16781 0.364117 0)
(1.14359 0.32655 0)
(1.11553 0.286341 0)
(1.08467 0.244047 0)
(1.05241 0.200246 0)
(1.02063 0.155746 0)
(0.990722 0.112526 0)
(0.966371 0.0771159 0)
(1.18429 0.522015 0)
(1.19068 0.523764 0)
(1.19711 0.524377 0)
(1.20341 0.523507 0)
(1.20929 0.520759 0)
(1.2144 0.515698 0)
(1.21832 0.507861 0)
(1.22051 0.496789 0)
(1.22039 0.48206 0)
(1.21734 0.463329 0)
(1.21077 0.440369 0)
(1.2002 0.4131 0)
(1.18534 0.38161 0)
(1.16618 0.34614 0)
(1.14308 0.307057 0)
(1.11676 0.264818 0)
(1.08837 0.219974 0)
(1.05955 0.17338 0)
(1.03146 0.127171 0)
(1.00809 0.0884288 0)
(1.17835 0.506852 0)
(1.18421 0.509461 0)
(1.19019 0.511184 0)
(1.19617 0.511718 0)
(1.20194 0.510707 0)
(1.20723 0.507744 0)
(1.21171 0.502378 0)
(1.21495 0.494131 0)
(1.21645 0.482527 0)
(1.21566 0.467118 0)
(1.21202 0.447528 0)
(1.20502 0.423491 0)
(1.19427 0.394876 0)
(1.17959 0.36171 0)
(1.16109 0.324166 0)
(1.13924 0.282557 0)
(1.11488 0.237357 0)
(1.08938 0.18941 0)
(1.06357 0.140946 0)
(1.04168 0.0994969 0)
(1.17141 0.493183 0)
(1.17665 0.496441 0)
(1.18206 0.499004 0)
(1.18753 0.500602 0)
(1.19294 0.500916 0)
(1.19807 0.499567 0)
(1.20266 0.496126 0)
(1.20639 0.490117 0)
(1.20885 0.481037 0)
(1.20957 0.468382 0)
(1.20805 0.451675 0)
(1.2038 0.430508 0)
(1.19638 0.404579 0)
(1.18552 0.37372 0)
(1.17114 0.337918 0)
(1.15348 0.297327 0)
(1.1331 0.252308 0)
(1.11106 0.203659 0)
(1.08779 0.153647 0)
(1.06775 0.110149 0)
(1.16389 0.481148 0)
(1.16845 0.484905 0)
(1.1732 0.488106 0)
(1.17805 0.490511 0)
(1.18292 0.491828 0)
(1.18765 0.491707 0)
(1.19205 0.489741 0)
(1.19586 0.48547 0)
(1.19878 0.478384 0)
(1.20043 0.467949 0)
(1.20037 0.453627 0)
(1.19816 0.434912 0)
(1.19337 0.411371 0)
(1.18567 0.382678 0)
(1.17487 0.348655 0)
(1.16101 0.309303 0)
(1.14439 0.26486 0)
(1.12575 0.216051 0)
(1.10511 0.165134 0)
(1.08714 0.120236 0)
(1.15621 0.470811 0)
(1.16009 0.474959 0)
(1.16413 0.478651 0)
(1.1683 0.481666 0)
(1.17252 0.483736 0)
(1.1767 0.484535 0)
(1.18071 0.483679 0)
(1.18435 0.480723 0)
(1.18738 0.475166 0)
(1.18952 0.466462 0)
(1.19042 0.454041 0)
(1.18968 0.437335 0)
(1.18692 0.415819 0)
(1.18178 0.38905 0)
(1.174 0.356718 0)
(1.16345 0.318692 0)
(1.15023 0.275096 0)
(1.13477 0.226574 0)
(1.11664 0.175317 0)
(1.10077 0.129614 0)
(1.1489 0.462214 0)
(1.15211 0.466671 0)
(1.15546 0.470734 0)
(1.15894 0.474197 0)
(1.1625 0.476806 0)
(1.16608 0.478256 0)
(1.1696 0.478184 0)
(1.17292 0.476164 0)
(1.17587 0.471712 0)
(1.17822 0.464289 0)
(1.17971 0.453312 0)
(1.18 0.438185 0)
(1.17876 0.418327 0)
(1.17563 0.393218 0)
(1.17029 0.362453 0)
(1.16253 0.325797 0)
(1.15221 0.283281 0)
(1.13951 0.235467 0)
(1.12358 0.184396 0)
(1.10965 0.138437 0)
(1.14264 0.455121 0)
(1.14525 0.459799 0)
(1.14799 0.464097 0)
(1.15084 0.467829 0)
(1.1538 0.470766 0)
(1.15684 0.472627 0)
(1.15989 0.473075 0)
(1.16288 0.471713 0)
(1.16568 0.468078 0)
(1.16811 0.461646 0)
(1.16997 0.451839 0)
(1.17098 0.438048 0)
(1.17084 0.419659 0)
(1.1692 0.396101 0)
(1.16574 0.366899 0)
(1.16011 0.331737 0)
(1.15205 0.290568 0)
(1.14146 0.243874 0)
(1.12717 0.193484 0)
(1.11477 0.147789 0)
(1.1384 0.449051 0)
(1.14051 0.454016 0)
(1.14278 0.458632 0)
(1.14523 0.462723 0)
(1.14783 0.466074 0)
(1.15057 0.468422 0)
(1.15339 0.469448 0)
(1.15623 0.46877 0)
(1.15899 0.46594 0)
(1.16152 0.460442 0)
(1.16364 0.451699 0)
(1.16511 0.43909 0)
(1.16565 0.421975 0)
(1.16492 0.399744 0)
(1.16256 0.371868 0)
(1.1582 0.33797 0)
(1.15149 0.297941 0)
(1.14208 0.252209 0)
(1.12861 0.202537 0)
(1.11705 0.157407 0)
)
;

boundaryField
{
    zeroGradientPlanes
    {
        type            zeroGradient;
    }
    inlet
    {
        type            fixedValue;
        value           uniform (1 0 0);
    }
    plate
    {
        type            noSlip;
    }
    frontAndBack
    {
        type            empty;
    }
}


// ************************************************************************* //
