/*--------------------------------*- C++ -*----------------------------------*\
| =========                 |                                                 |
| \\      /  F ield         | OpenFOAM: The Open Source CFD Toolbox           |
|  \\    /   O peration     | Version:  v2012                                 |
|   \\  /    A nd           | Website:  www.openfoam.com                      |
|    \\/     M anipulation  |                                                 |
\*---------------------------------------------------------------------------*/
FoamFile
{
    version     2.0;
    format      ascii;
    class       volVectorField;
    location    "1.5";
    object      U;
}
// * * * * * * * * * * * * * * * * * * * * * * * * * * * * * * * * * * * * * //

dimensions      [0 1 -1 0 0 0 0];


internalField   nonuniform List<vector> 
400
(
(0.725865 0.132329 0)
(0.621606 0.125312 0)
(0.461197 0.076894 0)
(0.340569 0.0440989 0)
(0.268217 0.025672 0)
(0.222375 0.0155941 0)
(0.190849 0.0100592 0)
(0.168081 0.00692172 0)
(0.150975 0.00504079 0)
(0.137676 0.00383444 0)
(0.127069 0.00300711 0)
(0.118463 0.00240453 0)
(0.111408 0.00194261 0)
(0.105597 0.00157406 0)
(0.10081 0.00127363 0)
(0.096875 0.00103279 0)
(0.0936399 0.000862288 0)
(0.0908646 0.00080621 0)
(0.088031 0.000921778 0)
(0.0852767 0.00110006 0)
(0.994946 0.25173 0)
(0.998021 0.288321 0)
(0.894458 0.215242 0)
(0.770595 0.148674 0)
(0.666361 0.102147 0)
(0.583441 0.0714761 0)
(0.517741 0.0516014 0)
(0.465625 0.0385687 0)
(0.423934 0.0297466 0)
(0.390157 0.0235322 0)
(0.362459 0.0189727 0)
(0.339531 0.0154958 0)
(0.320431 0.0127506 0)
(0.304477 0.0105196 0)
(0.291152 0.00867473 0)
(0.280049 0.00715668 0)
(0.27083 0.00597499 0)
(0.263059 0.00522627 0)
(0.255897 0.00503257 0)
(0.249818 0.00516545 0)
(1.02785 0.202011 0)
(1.07524 0.311722 0)
(1.05521 0.293874 0)
(0.991494 0.24413 0)
(0.913875 0.193565 0)
(0.837064 0.151202 0)
(0.767059 0.118453 0)
(0.705807 0.0938695 0)
(0.653212 0.075438 0)
(0.608355 0.0614395 0)
(0.570152 0.0505952 0)
(0.537607 0.0419986 0)
(0.509878 0.0350211 0)
(0.486283 0.0292361 0)
(0.466268 0.0243704 0)
(0.449378 0.020279 0)
(0.435244 0.0169388 0)
(0.423407 0.0144514 0)
(0.412897 0.0129636 0)
(0.404398 0.0123353 0)
(1.02212 0.140304 0)
(1.07373 0.275629 0)
(1.09821 0.308919 0)
(1.08522 0.29271 0)
(1.04627 0.257386 0)
(0.994437 0.21837 0)
(0.938514 0.182532 0)
(0.883615 0.152037 0)
(0.832352 0.1269 0)
(0.785803 0.106374 0)
(0.74422 0.0895659 0)
(0.707453 0.075661 0)
(0.675189 0.0639973 0)
(0.647067 0.0540721 0)
(0.622736 0.045535 0)
(0.601874 0.0381834 0)
(0.584216 0.0319667 0)
(0.569381 0.0269926 0)
(0.556372 0.0234792 0)
(0.546054 0.021569 0)
(1.0139 0.0987323 0)
(1.05636 0.228166 0)
(1.09608 0.288313 0)
(1.11278 0.300945 0)
(1.10537 0.286843 0)
(1.08058 0.260365 0)
(1.04526 0.230106 0)
(1.00475 0.200531 0)
(0.962734 0.173573 0)
(0.921549 0.149799 0)
(0.882558 0.129119 0)
(0.846482 0.111171 0)
(0.813655 0.0955255 0)
(0.784184 0.0817871 0)
(0.758056 0.0696465 0)
(0.735197 0.058915 0)
(0.715534 0.0495567 0)
(0.698834 0.0417228 0)
(0.684152 0.0357697 0)
(0.672571 0.032255 0)
(1.00827 0.0718959 0)
(1.04002 0.184789 0)
(1.08038 0.254215 0)
(1.11032 0.285691 0)
(1.12302 0.29047 0)
(1.11972 0.278871 0)
(1.10405 0.258586 0)
(1.07986 0.234679 0)
(1.05055 0.210143 0)
(1.01875 0.186559 0)
(0.986351 0.164631 0)
(0.954656 0.14456 0)
(0.924514 0.126293 0)
(0.896469 0.109669 0)
(0.870859 0.094523 0)
(0.847889 0.0807559 0)
(0.827712 0.0684017 0)
(0.810268 0.0577026 0)
(0.794736 0.0492078 0)
(0.782456 0.0439638 0)
(1.00498 0.0541299 0)
(1.02804 0.149206 0)
(1.06344 0.218203 0)
(1.09669 0.259547 0)
(1.11973 0.277931 0)
(1.13066 0.279553 0)
(1.13031 0.270114 0)
(1.1207 0.254109 0)
(1.10422 0.234717 0)
(1.0831 0.214003 0)
(1.05923 0.193206 0)
(1.03411 0.173001 0)
(1.00885 0.153706 0)
(0.984289 0.135437 0)
(0.961038 0.118225 0)
(0.939543 0.102112 0)
(0.920157 0.0872452 0)
(0.902993 0.0739973 0)
(0.887385 0.0631423 0)
(0.874963 0.0562352 0)
(1.00313 0.0420778 0)
(1.01988 0.121293 0)
(1.04906 0.185285 0)
(1.08062 0.230152 0)
(1.1074 0.256866 0)
(1.12623 0.268501 0)
(1.13622 0.268701 0)
(1.13786 0.260873 0)
(1.13238 0.247803 0)
(1.12133 0.231574 0)
(1.10623 0.21364 0)
(1.08847 0.194957 0)
(1.06918 0.17612 0)
(1.04933 0.157485 0)
(1.02967 0.139276 0)
(1.01079 0.121692 0)
(0.993208 0.105016 0)
(0.977157 0.0897691 0)
(0.96214 0.0769566 0)
(0.950085 0.0686142 0)
(1.00206 0.0336489 0)
(1.0144 0.0997271 0)
(1.03781 0.157091 0)
(1.06564 0.20163 0)
(1.0923 0.232532 0)
(1.11449 0.250863 0)
(1.13049 0.258612 0)
(1.13978 0.258046 0)
(1.14268 0.251302 0)
(1.14 0.24018 0)
(1.13278 0.226087 0)
(1.12209 0.210064 0)
(1.10894 0.192849 0)
(1.09423 0.174958 0)
(1.07875 0.156771 0)
(1.06316 0.138623 0)
(1.04802 0.120931 0)
(1.03368 0.104362 0)
(1.01977 0.0901351 0)
(1.0085 0.0807005 0)
(1.00143 0.0275616 0)
(1.01066 0.0830759 0)
(1.02924 0.133701 0)
(1.05288 0.17588 0)
(1.07746 0.20813 0)
(1.10008 0.230388 0)
(1.11883 0.243489 0)
(1.13267 0.248749 0)
(1.14127 0.247625 0)
(1.14488 0.241501 0)
(1.14403 0.231573 0)
(1.13944 0.218814 0)
(1.13189 0.203986 0)
(1.12214 0.187675 0)
(1.11089 0.170354 0)
(1.09879 0.152462 0)
(1.08641 0.134525 0)
(1.0741 0.117337 0)
(1.06163 0.102296 0)
(1.05145 0.0921722 0)
(1.00103 0.0230434 0)
(1.00804 0.0701536 0)
(1.02277 0.114599 0)
(1.04243 0.15354 0)
(1.06412 0.185386 0)
(1.08551 0.209525 0)
(1.1048 0.226076 0)
(1.12077 0.235652 0)
(1.13276 0.239126 0)
(1.1406 0.237451 0)
(1.14443 0.231542 0)
(1.14465 0.222213 0)
(1.14177 0.210158 0)
(1.13635 0.195959 0)
(1.12898 0.180121 0)
(1.12022 0.163145 0)
(1.11058 0.145632 0)
(1.1004 0.128474 0)
(1.08953 0.113201 0)
(1.08065 0.102798 0)
(1.00077 0.0196173 0)
(1.00617 0.0600537 0)
(1.01786 0.0991097 0)
(1.03404 0.134603 0)
(1.05268 0.165083 0)
(1.07199 0.189728 0)
(1.09045 0.208258 0)
(1.10686 0.220814 0)
(1.12042 0.227821 0)
(1.13071 0.229852 0)
(1.13763 0.227537 0)
(1.14128 0.221492 0)
(1.14195 0.212292 0)
(1.14003 0.200459 0)
(1.13592 0.186488 0)
(1.13009 0.170896 0)
(1.12297 0.154329 0)
(1.11482 0.137742 0)
(1.10557 0.122748 0)
(1.09805 0.112435 0)
(1.00058 0.0169752 0)
(1.00481 0.052098 0)
(1.01413 0.0865782 0)
(1.02738 0.118773 0)
(1.04312 0.14745 0)
(1.06005 0.171761 0)
(1.07691 0.191229 0)
(1.09265 0.205704 0)
(1.10645 0.21529 0)
(1.1178 0.22026 0)
(1.12642 0.220988 0)
(1.13225 0.217895 0)
(1.13537 0.211416 0)
(1.13602 0.201987 0)
(1.13445 0.190056 0)
(1.13101 0.17613 0)
(1.12602 0.160869 0)
(1.11969 0.145258 0)
(1.11196 0.130943 0)
(1.10579 0.121021 0)
(1.00045 0.0149072 0)
(1.0038 0.0457748 0)
(1.01129 0.0764266 0)
(1.02213 0.105642 0)
(1.03531 0.132411 0)
(1.04984 0.15594 0)
(1.06476 0.175673 0)
(1.07916 0.191291 0)
(1.09231 0.202683 0)
(1.10368 0.209898 0)
(1.11292 0.213104 0)
(1.11985 0.212547 0)
(1.12444 0.208527 0)
(1.12678 0.201381 0)
(1.12702 0.191498 0)
(1.12537 0.179354 0)
(1.12208 0.165602 0)
(1.11727 0.151228 0)
(1.11091 0.137872 0)
(1.10601 0.128559 0)
(1.00036 0.01326 0)
(1.00306 0.0406855 0)
(1.00917 0.0681572 0)
(1.01808 0.0947797 0)
(1.02905 0.119735 0)
(1.04135 0.142306 0)
(1.05423 0.161917 0)
(1.06697 0.178157 0)
(1.07892 0.190775 0)
(1.08961 0.199663 0)
(1.09866 0.204831 0)
(1.10586 0.20638 0)
(1.1111 0.204492 0)
(1.11438 0.199412 0)
(1.11575 0.191465 0)
(1.11535 0.181088 0)
(1.11333 0.16891 0)
(1.10972 0.155903 0)
(1.10453 0.143667 0)
(1.1008 0.135095 0)
(1.0003 0.0119123 0)
(1.00256 0.0365069 0)
(1.00765 0.0613445 0)
(1.01505 0.085776 0)
(1.02419 0.109127 0)
(1.03452 0.130746 0)
(1.04544 0.15006 0)
(1.05639 0.166608 0)
(1.06686 0.180049 0)
(1.07643 0.190168 0)
(1.08476 0.196858 0)
(1.09163 0.200112 0)
(1.09691 0.200014 0)
(1.10053 0.196731 0)
(1.1025 0.190528 0)
(1.10286 0.181803 0)
(1.10172 0.171157 0)
(1.09904 0.159534 0)
(1.09485 0.148473 0)
(1.09215 0.140699 0)
(1.00028 0.0107579 0)
(1.00229 0.0329694 0)
(1.00668 0.0556364 0)
(1.01297 0.0782767 0)
(1.02063 0.100299 0)
(1.02925 0.121091 0)
(1.03838 0.14008 0)
(1.0476 0.156773 0)
(1.0565 0.170775 0)
(1.06475 0.181797 0)
(1.07206 0.189653 0)
(1.07825 0.194256 0)
(1.08315 0.195616 0)
(1.0867 0.193839 0)
(1.08885 0.189141 0)
(1.08963 0.181884 0)
(1.08907 0.172643 0)
(1.08709 0.162327 0)
(1.08372 0.152412 0)
(1.08195 0.145438 0)
(1.00032 0.00964808 0)
(1.00228 0.0297676 0)
(1.00628 0.0506638 0)
(1.01176 0.0719021 0)
(1.01827 0.0929022 0)
(1.02548 0.113054 0)
(1.03307 0.131777 0)
(1.04071 0.148557 0)
(1.04813 0.162962 0)
(1.05505 0.174657 0)
(1.06127 0.183403 0)
(1.06661 0.189058 0)
(1.07094 0.191581 0)
(1.07418 0.191031 0)
(1.07628 0.187587 0)
(1.07723 0.181583 0)
(1.07703 0.173572 0)
(1.07558 0.164432 0)
(1.07292 0.155581 0)
(1.07197 0.149409 0)
(1.00045 0.00827337 0)
(1.00259 0.0263683 0)
(1.00641 0.0457795 0)
(1.01134 0.0659296 0)
(1.01698 0.0861718 0)
(1.0231 0.105868 0)
(1.02947 0.124421 0)
(1.03585 0.141299 0)
(1.04204 0.156048 0)
(1.04783 0.168301 0)
(1.05307 0.177783 0)
(1.05763 0.184317 0)
(1.06138 0.187824 0)
(1.06425 0.188328 0)
(1.0662 0.185981 0)
(1.0672 0.181092 0)
(1.06724 0.174191 0)
(1.06619 0.166125 0)
(1.06417 0.158275 0)
(1.06395 0.152968 0)
(1.00062 0.00668806 0)
(1.00301 0.0229973 0)
(1.00677 0.0412473 0)
(1.01138 0.0606004 0)
(1.01651 0.0803173 0)
(1.02198 0.0997246 0)
(1.02761 0.11821 0)
(1.03323 0.135226 0)
(1.03868 0.150302 0)
(1.04378 0.163051 0)
(1.04842 0.173174 0)
(1.05247 0.180465 0)
(1.05585 0.184819 0)
(1.05848 0.186234 0)
(1.0603 0.184838 0)
(1.06131 0.180916 0)
(1.06148 0.174974 0)
(1.06068 0.167834 0)
(1.05922 0.160833 0)
(1.05952 0.156147 0)
)
;

boundaryField
{
    movingWall
    {
        type            zeroGradient;
    }
    bottomWall
    {
        type            noSlip;
    }
    leftSide
    {
        type            fixedValue;
        value           uniform (1 0 0);
    }
    rightSide
    {
        type            zeroGradient;
    }
    frontAndBack
    {
        type            empty;
    }
}


// ************************************************************************* //
