/*--------------------------------*- C++ -*----------------------------------*\
| =========                 |                                                 |
| \\      /  F ield         | OpenFOAM: The Open Source CFD Toolbox           |
|  \\    /   O peration     | Version:  v2012                                 |
|   \\  /    A nd           | Website:  www.openfoam.com                      |
|    \\/     M anipulation  |                                                 |
\*---------------------------------------------------------------------------*/
FoamFile
{
    version     2.0;
    format      ascii;
    class       volScalarField;
    location    "0.1";
    object      p;
}
// * * * * * * * * * * * * * * * * * * * * * * * * * * * * * * * * * * * * * //

dimensions      [0 2 -2 0 0 0 0];


internalField   nonuniform List<scalar> 
800
(
-5.73839e-09
0.00601736
0.0189687
0.0340488
0.0499804
0.0666674
0.0841657
0.102672
0.122545
0.144311
0.168666
0.196489
0.22886
0.267013
0.311659
0.361492
0.417196
0.50131
0.637703
0.587956
-0.0140189
-0.0107193
-0.000334215
0.012145
0.0253124
0.0388417
0.0525201
0.0662135
0.0797989
0.0930558
0.10553
0.116354
0.124053
0.126378
0.120052
0.100399
0.062534
0.00612832
-0.0676947
-0.1866
-0.0354591
-0.0348501
-0.0274795
-0.0180671
-0.00816843
0.00165894
0.0109463
0.019253
0.0260714
0.0307181
0.032249
0.0294088
0.020648
0.00423201
-0.0215856
-0.058368
-0.107191
-0.16846
-0.242823
-0.331065
-0.0592593
-0.0598221
-0.0546257
-0.0477496
-0.0407117
-0.0341937
-0.0288149
-0.0251835
-0.0239717
-0.0259779
-0.0321436
-0.0435187
-0.0611715
-0.0860501
-0.118817
-0.159672
-0.208192
-0.263375
-0.323919
-0.387895
-0.0847052
-0.0856043
-0.0820679
-0.0774047
-0.0729835
-0.0695262
-0.067709
-0.0681899
-0.071651
-0.0788205
-0.0904474
-0.107234
-0.129734
-0.158227
-0.192614
-0.23233
-0.276332
-0.32319
-0.371275
-0.41885
-0.111506
-0.112423
-0.110276
-0.1076
-0.105565
-0.10487
-0.106171
-0.110079
-0.117181
-0.12803
-0.143103
-0.16273
-0.187016
-0.215775
-0.248489
-0.284331
-0.322225
-0.360971
-0.399371
-0.436333
-0.139205
-0.13998
-0.138998
-0.138064
-0.138123
-0.139803
-0.143676
-0.150248
-0.159955
-0.173145
-0.190031
-0.21065
-0.234817
-0.262109
-0.291883
-0.323327
-0.355538
-0.387622
-0.418775
-0.448338
-0.167376
-0.167914
-0.167896
-0.168456
-0.1703
-0.173948
-0.179852
-0.188382
-0.199812
-0.214298
-0.23185
-0.252307
-0.27533
-0.300416
-0.326938
-0.354198
-0.3815
-0.408209
-0.433804
-0.457892
-0.195682
-0.195935
-0.196715
-0.198542
-0.201878
-0.207112
-0.21456
-0.22445
-0.236904
-0.251924
-0.269376
-0.288987
-0.310358
-0.332993
-0.356343
-0.379849
-0.402999
-0.425356
-0.446588
-0.466462
-0.223855
-0.223806
-0.225251
-0.228146
-0.232712
-0.239197
-0.247777
-0.258544
-0.271494
-0.286513
-0.303379
-0.32177
-0.341286
-0.361481
-0.381903
-0.402125
-0.421779
-0.440572
-0.458295
-0.474815
-0.251671
-0.251321
-0.25333
-0.257132
-0.262708
-0.270166
-0.279547
-0.290823
-0.30389
-0.318556
-0.334554
-0.351553
-0.369186
-0.387074
-0.40486
-0.422229
-0.438923
-0.454751
-0.469587
-0.483361
-0.278938
-0.2783
-0.280809
-0.285397
-0.291815
-0.300033
-0.309968
-0.32149
-0.33442
-0.348521
-0.363509
-0.379071
-0.394887
-0.41065
-0.426087
-0.440974
-0.455137
-0.468458
-0.48087
-0.492341
-0.305486
-0.304587
-0.30757
-0.312874
-0.320021
-0.328852
-0.339172
-0.35077
-0.363413
-0.37684
-0.390773
-0.40493
-0.419043
-0.432874
-0.446223
-0.458938
-0.470912
-0.482079
-0.492413
-0.501914
-0.33115
-0.330039
-0.333521
-0.339525
-0.347347
-0.356708
-0.367317
-0.378899
-0.391185
-0.403907
-0.416804
-0.429634
-0.442181
-0.454268
-0.46576
-0.476561
-0.486617
-0.495904
-0.504425
-0.512205
-0.355746
-0.354511
-0.358573
-0.36532
-0.373824
-0.383697
-0.394569
-0.406114
-0.418041
-0.430087
-0.442016
-0.453624
-0.46475
-0.475269
-0.485102
-0.494202
-0.502556
-0.510175
-0.517086
-0.523331
-0.379043
-0.377828
-0.38261
-0.3902
-0.399448
-0.409874
-0.421043
-0.432592
-0.444221
-0.455679
-0.466753
-0.477281
-0.487145
-0.496269
-0.504621
-0.512196
-0.519019
-0.525129
-0.530579
-0.535425
-0.400799
-0.399889
-0.405622
-0.414211
-0.424305
-0.435351
-0.446873
-0.45849
-0.469903
-0.480877
-0.49123
-0.500835
-0.509613
-0.517531
-0.524591
-0.530825
-0.536284
-0.541035
-0.545149
-0.548701
-0.420907
-0.421026
-0.42818
-0.438061
-0.449188
-0.460978
-0.472939
-0.484689
-0.49594
-0.506478
-0.516156
-0.524886
-0.532633
-0.539407
-0.54525
-0.550227
-0.554417
-0.557904
-0.560772
-0.563105
-0.438849
-0.441208
-0.450448
-0.462049
-0.474543
-0.487389
-0.500111
-0.512328
-0.523755
-0.534183
-0.543477
-0.551571
-0.558454
-0.56417
-0.568798
-0.572445
-0.575237
-0.577306
-0.578787
-0.579817
-0.450409
-0.454729
-0.465435
-0.478266
-0.491801
-0.505571
-0.51915
-0.532165
-0.544323
-0.555402
-0.565251
-0.573787
-0.580985
-0.586872
-0.591511
-0.594991
-0.59742
-0.598917
-0.599602
-0.599519
-0.381148
-0.90278
-1.11111
-1.20405
-1.23464
-1.22113
-1.18311
-1.13609
-1.08874
-1.04488
-1.00556
-0.970494
-0.938912
-0.910005
-0.883127
-0.857866
-0.834096
-0.812169
-0.792868
-0.775098
-0.396638
-0.579384
-0.718769
-0.826494
-0.904744
-0.953996
-0.9788
-0.985497
-0.979914
-0.966657
-0.949041
-0.92923
-0.908492
-0.887509
-0.866636
-0.846102
-0.826165
-0.807404
-0.790835
-0.773789
-0.430657
-0.535616
-0.634548
-0.719904
-0.78883
-0.840515
-0.875875
-0.897103
-0.906923
-0.908039
-0.90284
-0.893247
-0.880701
-0.866222
-0.850529
-0.834165
-0.817611
-0.801599
-0.7875
-0.771097
-0.454053
-0.52307
-0.592332
-0.65747
-0.715363
-0.763892
-0.802021
-0.8298
-0.848096
-0.858234
-0.861688
-0.859876
-0.854033
-0.845177
-0.834128
-0.821571
-0.808109
-0.794567
-0.782687
-0.76715
-0.465939
-0.514828
-0.565634
-0.616142
-0.664082
-0.707428
-0.744645
-0.774846
-0.797791
-0.813782
-0.823482
-0.82775
-0.827487
-0.823554
-0.816731
-0.807727
-0.797196
-0.785998
-0.776205
-0.76175
-0.472353
-0.509732
-0.549172
-0.589496
-0.629269
-0.667002
-0.701328
-0.731162
-0.755798
-0.774938
-0.788652
-0.797289
-0.801375
-0.80152
-0.798363
-0.792552
-0.78472
-0.775704
-0.767848
-0.754561
-0.476949
-0.506647
-0.53825
-0.571118
-0.604366
-0.636962
-0.667831
-0.695967
-0.720541
-0.740977
-0.756981
-0.768525
-0.7758
-0.779155
-0.779039
-0.775982
-0.770548
-0.763508
-0.7574
-0.745234
-0.481125
-0.505259
-0.531082
-0.558236
-0.586175
-0.614201
-0.641516
-0.667286
-0.690723
-0.711166
-0.728135
-0.741359
-0.750771
-0.756484
-0.758753
-0.757964
-0.754578
-0.749262
-0.744681
-0.733479
-0.485591
-0.505473
-0.52682
-0.549428
-0.572957
-0.596937
-0.620794
-0.643873
-0.665498
-0.685032
-0.701932
-0.715796
-0.726385
-0.733626
-0.737601
-0.738545
-0.736801
-0.732909
-0.729594
-0.7191
-0.490686
-0.507181
-0.524925
-0.543801
-0.563592
-0.583982
-0.60456
-0.624829
-0.64424
-0.662228
-0.678267
-0.691908
-0.702816
-0.710793
-0.715784
-0.717889
-0.71733
-0.714505
-0.712152
-0.702029
-0.496566
-0.510278
-0.525035
-0.540767
-0.557332
-0.574516
-0.592021
-0.609477
-0.626449
-0.642466
-0.657053
-0.669774
-0.680261
-0.688246
-0.69358
-0.696254
-0.696384
-0.694222
-0.692484
-0.682334
-0.503308
-0.514675
-0.526893
-0.53992
-0.553657
-0.567952
-0.582589
-0.59729
-0.611716
-0.625486
-0.638197
-0.649454
-0.658901
-0.666247
-0.671291
-0.673954
-0.674257
-0.672322
-0.670822
-0.660208
-0.51096
-0.520305
-0.53032
-0.540972
-0.552189
-0.563856
-0.575812
-0.587844
-0.599689
-0.611045
-0.621581
-0.630961
-0.638868
-0.645023
-0.64921
-0.651311
-0.651282
-0.649127
-0.647474
-0.635945
-0.519567
-0.52713
-0.535192
-0.543721
-0.552656
-0.561905
-0.57134
-0.580794
-0.590063
-0.598907
-0.607065
-0.614263
-0.620235
-0.62474
-0.627579
-0.628621
-0.627783
-0.624975
-0.622782
-0.609909
-0.529186
-0.535148
-0.541443
-0.548036
-0.554868
-0.561858
-0.5689
-0.575858
-0.582568
-0.588845
-0.594483
-0.599271
-0.603002
-0.605487
-0.606563
-0.606116
-0.604047
-0.600195
-0.597106
-0.582511
-0.539903
-0.544394
-0.549055
-0.553844
-0.558699
-0.563542
-0.568278
-0.572793
-0.576955
-0.580619
-0.583632
-0.585842
-0.587101
-0.58728
-0.58627
-0.583991
-0.580347
-0.575129
-0.570844
-0.55424
-0.551884
-0.554976
-0.558071
-0.561118
-0.564052
-0.566798
-0.569269
-0.571368
-0.572989
-0.57402
-0.574351
-0.573877
-0.57251
-0.570181
-0.566839
-0.562453
-0.556945
-0.550086
-0.544341
-0.525525
-0.565062
-0.56682
-0.568415
-0.569791
-0.570884
-0.571617
-0.571905
-0.571653
-0.570766
-0.569148
-0.566717
-0.563412
-0.559199
-0.554076
-0.548067
-0.541209
-0.533465
-0.524625
-0.517088
-0.495855
-0.580557
-0.581062
-0.581247
-0.581004
-0.580234
-0.578842
-0.576733
-0.573822
-0.57003
-0.565299
-0.559594
-0.552918
-0.545319
-0.536895
-0.527781
-0.518119
-0.507942
-0.497094
-0.487523
-0.463675
-0.59856
-0.596742
-0.594251
-0.591143
-0.587361
-0.582846
-0.577547
-0.571418
-0.564418
-0.556527
-0.547757
-0.538173
-0.527896
-0.517111
-0.506045
-0.494924
-0.483838
-0.472718
-0.461928
-0.435833
)
;

boundaryField
{
    zeroGradientPlanes
    {
        type            zeroGradient;
    }
    inlet
    {
        type            zeroGradient;
    }
    plate
    {
        type            zeroGradient;
    }
    frontAndBack
    {
        type            empty;
    }
}


// ************************************************************************* //
