/*--------------------------------*- C++ -*----------------------------------*\
| =========                 |                                                 |
| \\      /  F ield         | OpenFOAM: The Open Source CFD Toolbox           |
|  \\    /   O peration     | Version:  v2012                                 |
|   \\  /    A nd           | Website:  www.openfoam.com                      |
|    \\/     M anipulation  |                                                 |
\*---------------------------------------------------------------------------*/
FoamFile
{
    version     2.0;
    format      ascii;
    class       surfaceScalarField;
    location    "0.1";
    object      phi;
}
// * * * * * * * * * * * * * * * * * * * * * * * * * * * * * * * * * * * * * //

dimensions      [0 3 -1 0 0 0 0];
oriented        oriented;


internalField   nonuniform List<scalar> 
1540
(
4.96822e-05
1.8194e-06
4.91887e-05
5.71208e-06
4.86481e-05
9.25846e-06
4.80964e-05
1.23714e-05
4.75501e-05
1.5042e-05
4.70161e-05
1.73019e-05
4.64967e-05
1.91962e-05
4.59913e-05
2.07678e-05
4.54977e-05
2.20479e-05
4.5012e-05
2.30515e-05
4.45286e-05
2.37748e-05
4.40396e-05
2.41964e-05
4.35346e-05
2.42804e-05
4.2999e-05
2.39812e-05
4.24134e-05
2.32496e-05
4.17517e-05
2.20412e-05
4.09704e-05
2.03307e-05
3.99825e-05
1.81218e-05
3.86689e-05
1.54099e-05
1.21125e-05
3.70322e-05
4.97183e-05
2.10111e-06
4.92583e-05
6.17206e-06
4.87427e-05
9.77404e-06
4.82191e-05
1.28951e-05
4.77071e-05
1.5554e-05
4.72168e-05
1.77922e-05
4.67548e-05
1.96582e-05
4.63274e-05
2.11952e-05
4.59417e-05
2.24336e-05
4.56072e-05
2.3386e-05
4.53363e-05
2.40458e-05
4.51436e-05
2.43891e-05
4.50438e-05
2.43802e-05
4.5046e-05
2.3979e-05
4.51441e-05
2.31515e-05
4.53036e-05
2.18817e-05
4.54513e-05
2.01831e-05
4.54709e-05
1.81022e-05
4.51741e-05
1.57067e-05
1.31042e-05
4.41824e-05
4.97729e-05
2.3282e-06
4.93659e-05
6.57909e-06
4.89021e-05
1.02378e-05
4.84337e-05
1.33636e-05
4.79858e-05
1.60019e-05
4.75741e-05
1.82039e-05
4.72119e-05
2.00204e-05
4.69132e-05
2.14939e-05
4.66947e-05
2.26521e-05
4.65754e-05
2.35052e-05
4.65759e-05
2.40453e-05
4.67143e-05
2.42507e-05
4.70008e-05
2.40936e-05
4.743e-05
2.35498e-05
4.7972e-05
2.26095e-05
4.85668e-05
2.12869e-05
4.91226e-05
1.96273e-05
4.95192e-05
1.77056e-05
4.96059e-05
1.562e-05
1.34896e-05
4.92205e-05
4.98257e-05
2.50248e-06
4.94873e-05
6.91752e-06
4.9095e-05
1.063e-05
4.87031e-05
1.37555e-05
4.83417e-05
1.63633e-05
4.80316e-05
1.85139e-05
4.77919e-05
2.02601e-05
4.76423e-05
2.16435e-05
4.76039e-05
2.26906e-05
4.76979e-05
2.34112e-05
4.79424e-05
2.38008e-05
4.83472e-05
2.38459e-05
4.89079e-05
2.3533e-05
4.96e-05
2.28577e-05
5.03753e-05
2.18341e-05
5.11628e-05
2.04995e-05
5.18744e-05
1.89157e-05
5.24165e-05
1.71635e-05
5.27024e-05
1.53342e-05
1.35191e-05
5.26729e-05
4.98725e-05
2.63002e-06
4.96093e-05
7.18072e-06
4.93014e-05
1.0938e-05
4.90007e-05
1.40561e-05
4.874e-05
1.66241e-05
4.85437e-05
1.87102e-05
4.8434e-05
2.03697e-05
4.8433e-05
2.16445e-05
4.85616e-05
2.2562e-05
4.88374e-05
2.31354e-05
4.92706e-05
2.33676e-05
4.98592e-05
2.32573e-05
5.05848e-05
2.28074e-05
5.141e-05
2.20326e-05
5.22795e-05
2.09646e-05
5.31256e-05
1.96534e-05
5.3877e-05
1.81642e-05
5.44697e-05
1.65708e-05
5.48572e-05
1.49467e-05
1.33576e-05
5.50187e-05
4.99133e-05
2.71672e-06
4.97259e-05
7.36812e-06
4.95081e-05
1.11557e-05
4.93063e-05
1.4258e-05
4.91525e-05
1.67779e-05
4.90723e-05
1.87904e-05
4.90887e-05
2.03533e-05
4.92226e-05
2.15107e-05
4.94913e-05
2.22932e-05
4.99062e-05
2.27205e-05
5.04684e-05
2.28054e-05
5.11656e-05
2.25601e-05
5.19704e-05
2.20026e-05
5.28408e-05
2.11621e-05
5.37244e-05
2.0081e-05
5.45647e-05
1.88131e-05
5.5309e-05
1.742e-05
5.59158e-05
1.59639e-05
5.636e-05
1.45025e-05
1.30832e-05
5.66345e-05
4.99487e-05
2.76802e-06
4.9834e-05
7.48276e-06
4.97067e-05
1.12831e-05
4.96048e-05
1.43599e-05
4.95573e-05
1.68253e-05
4.95885e-05
1.87592e-05
4.97193e-05
2.02225e-05
4.99675e-05
2.12625e-05
5.03454e-05
2.19153e-05
5.08575e-05
2.22085e-05
5.14973e-05
2.21656e-05
5.22462e-05
2.18111e-05
5.30733e-05
2.11755e-05
5.39382e-05
2.02972e-05
5.47958e-05
1.92235e-05
5.56018e-05
1.80072e-05
5.63186e-05
1.67031e-05
5.69197e-05
1.53629e-05
5.73907e-05
1.40314e-05
1.27439e-05
5.773e-05
4.99792e-05
2.78886e-06
4.99322e-05
7.52968e-06
4.98917e-05
1.13236e-05
4.98862e-05
1.43655e-05
4.99395e-05
1.67721e-05
5.00722e-05
1.86264e-05
5.03021e-05
1.99927e-05
5.06422e-05
2.09223e-05
5.10999e-05
2.14577e-05
5.16736e-05
2.16347e-05
5.23521e-05
2.1487e-05
5.31138e-05
2.10494e-05
5.39284e-05
2.03609e-05
5.47602e-05
1.94655e-05
5.55723e-05
1.84113e-05
5.63313e-05
1.72481e-05
5.70108e-05
1.60236e-05
5.75932e-05
1.47804e-05
5.80705e-05
1.35541e-05
1.23716e-05
5.84428e-05
5.00054e-05
2.78345e-06
5.00203e-05
7.51477e-06
5.00608e-05
1.12832e-05
5.01449e-05
1.42813e-05
5.02901e-05
1.66268e-05
5.05123e-05
1.84043e-05
5.08244e-05
1.96805e-05
5.12353e-05
2.05115e-05
5.17472e-05
2.09457e-05
5.23549e-05
2.10271e-05
5.30442e-05
2.07977e-05
5.37936e-05
2.03001e-05
5.45754e-05
1.9579e-05
5.53599e-05
1.8681e-05
5.61179e-05
1.76533e-05
5.68246e-05
1.65414e-05
5.74614e-05
1.53868e-05
5.80168e-05
1.42251e-05
5.84858e-05
1.3085e-05
1.19878e-05
5.88696e-05
5.00282e-05
2.75525e-06
5.0099e-05
7.44397e-06
5.02133e-05
1.11688e-05
5.03789e-05
1.41158e-05
5.06056e-05
1.64e-05
5.0904e-05
1.81059e-05
5.12822e-05
1.93023e-05
5.17448e-05
2.00489e-05
5.22905e-05
2.04001e-05
5.29112e-05
2.04063e-05
5.35924e-05
2.01165e-05
5.43139e-05
1.95787e-05
5.5052e-05
1.88409e-05
5.57825e-05
1.79505e-05
5.64833e-05
1.69526e-05
5.71358e-05
1.58888e-05
5.77271e-05
1.47955e-05
5.82495e-05
1.37028e-05
5.87002e-05
1.26343e-05
1.16075e-05
5.90806e-05
5.00484e-05
2.70688e-06
5.01697e-05
7.32266e-06
5.03508e-05
1.09877e-05
5.05887e-05
1.38778e-05
5.08862e-05
1.61026e-05
5.12478e-05
1.77443e-05
5.16774e-05
1.88727e-05
5.21757e-05
1.95506e-05
5.27388e-05
1.98369e-05
5.33576e-05
1.97875e-05
5.4018e-05
1.9456e-05
5.47024e-05
1.88943e-05
5.53912e-05
1.81521e-05
5.60655e-05
1.72762e-05
5.67083e-05
1.63097e-05
5.73065e-05
1.52906e-05
5.78509e-05
1.42511e-05
5.83364e-05
1.32172e-05
5.87617e-05
1.22091e-05
1.12411e-05
5.91281e-05
5.00669e-05
2.64e-06
5.02343e-05
7.1552e-06
5.04755e-05
1.07466e-05
5.07773e-05
1.35761e-05
5.11349e-05
1.57449e-05
5.15478e-05
1.73314e-05
5.20157e-05
1.84048e-05
5.25365e-05
1.90299e-05
5.31046e-05
1.92688e-05
5.37107e-05
1.91814e-05
5.43423e-05
1.88245e-05
5.49844e-05
1.82522e-05
5.56215e-05
1.75149e-05
5.62392e-05
1.66586e-05
5.68249e-05
1.5724e-05
5.73693e-05
1.47462e-05
5.78662e-05
1.37543e-05
5.83123e-05
1.27711e-05
5.87071e-05
1.18142e-05
1.0896e-05
5.90523e-05
5.00848e-05
2.55519e-06
5.02953e-05
6.9447e-06
5.05908e-05
1.04511e-05
5.09483e-05
1.32186e-05
5.13565e-05
1.53367e-05
5.181e-05
1.6878e-05
5.23051e-05
1.79096e-05
5.28377e-05
1.84973e-05
5.34014e-05
1.87051e-05
5.39875e-05
1.85953e-05
5.4585e-05
1.82269e-05
5.51822e-05
1.76551e-05
5.5767e-05
1.69301e-05
5.63288e-05
1.60968e-05
5.68587e-05
1.51941e-05
5.73503e-05
1.42547e-05
5.77995e-05
1.33051e-05
5.82046e-05
1.2366e-05
5.85658e-05
1.1453e-05
1.05772e-05
5.88846e-05
5.01034e-05
2.45178e-06
5.03552e-05
6.69297e-06
5.07001e-05
1.01061e-05
5.11062e-05
1.28125e-05
5.15563e-05
1.48866e-05
5.2041e-05
1.63933e-05
5.25542e-05
1.73965e-05
5.30902e-05
1.79613e-05
5.36425e-05
1.81528e-05
5.42034e-05
1.80345e-05
5.47639e-05
1.76664e-05
5.53151e-05
1.7104e-05
5.5848e-05
1.63971e-05
5.63552e-05
1.55895e-05
5.68308e-05
1.47185e-05
5.72707e-05
1.38148e-05
5.76725e-05
1.29032e-05
5.80358e-05
1.20028e-05
5.8361e-05
1.11277e-05
1.02882e-05
5.865e-05
5.01241e-05
2.32769e-06
5.04165e-05
6.40059e-06
5.08068e-05
9.71583e-06
5.12549e-05
1.23643e-05
5.17391e-05
1.44024e-05
5.2247e-05
1.58854e-05
5.27707e-05
1.68728e-05
5.33037e-05
1.74282e-05
5.38398e-05
1.76167e-05
5.43722e-05
1.7502e-05
5.48943e-05
1.71443e-05
5.53993e-05
1.65989e-05
5.58815e-05
1.5915e-05
5.63358e-05
1.51352e-05
5.67587e-05
1.42955e-05
5.71482e-05
1.34253e-05
5.75033e-05
1.25481e-05
5.78244e-05
1.16817e-05
5.81125e-05
1.08396e-05
1.00313e-05
5.83694e-05
5.01483e-05
2.17939e-06
5.04814e-05
6.06754e-06
5.09131e-05
9.28412e-06
5.1397e-05
1.18804e-05
5.19081e-05
1.38913e-05
5.24324e-05
1.53611e-05
5.29606e-05
1.63445e-05
5.3486e-05
1.69028e-05
5.40027e-05
1.71001e-05
5.45052e-05
1.69995e-05
5.49887e-05
1.66608e-05
5.54487e-05
1.61389e-05
5.58818e-05
1.54819e-05
5.62853e-05
1.47317e-05
5.66576e-05
1.39232e-05
5.69984e-05
1.30846e-05
5.73078e-05
1.22386e-05
5.7587e-05
1.14025e-05
5.78375e-05
1.05891e-05
9.80756e-06
5.80612e-05
5.01775e-05
2.00185e-06
5.05508e-05
5.69423e-06
5.10191e-05
8.81589e-06
5.15321e-05
1.13674e-05
5.20636e-05
1.33598e-05
5.25984e-05
1.48264e-05
5.31266e-05
1.58163e-05
5.36415e-05
1.6388e-05
5.41374e-05
1.66041e-05
5.46103e-05
1.65266e-05
5.50567e-05
1.62144e-05
5.54742e-05
1.57214e-05
5.58611e-05
1.5095e-05
5.62168e-05
1.4376e-05
5.65415e-05
1.35985e-05
5.68359e-05
1.27902e-05
5.71015e-05
1.19731e-05
5.734e-05
1.1164e-05
5.75534e-05
1.03757e-05
9.61711e-06
5.77438e-05
5.02129e-05
1.78891e-06
5.06235e-05
5.2837e-06
5.11214e-05
8.31795e-06
5.16563e-05
1.08325e-05
5.22017e-05
1.28143e-05
5.27423e-05
1.42858e-05
5.32677e-05
1.52908e-05
5.37709e-05
1.58848e-05
5.42468e-05
1.61281e-05
5.46922e-05
1.60812e-05
5.51048e-05
1.58018e-05
5.54838e-05
1.53424e-05
5.58293e-05
1.47496e-05
5.61419e-05
1.40633e-05
5.64234e-05
1.33171e-05
5.66756e-05
1.2538e-05
5.69008e-05
1.17479e-05
5.71014e-05
1.09634e-05
5.72799e-05
1.01972e-05
9.45828e-06
5.74387e-05
5.02515e-05
1.5374e-06
5.06909e-05
4.84431e-06
5.12097e-05
7.79916e-06
5.17589e-05
1.02833e-05
5.23132e-05
1.226e-05
5.28568e-05
1.37422e-05
5.33791e-05
1.47686e-05
5.38725e-05
1.53914e-05
5.43323e-05
1.56684e-05
5.47555e-05
1.56581e-05
5.51408e-05
1.54165e-05
5.54884e-05
1.49948e-05
5.57996e-05
1.44385e-05
5.60762e-05
1.37867e-05
5.63211e-05
1.30722e-05
5.65371e-05
1.2322e-05
5.67274e-05
1.15576e-05
5.68951e-05
1.07957e-05
5.70432e-05
1.00491e-05
9.32706e-06
5.71744e-05
5.02757e-05
5.07353e-05
5.12635e-05
5.18198e-05
5.23792e-05
5.29253e-05
5.34468e-05
5.39361e-05
5.43879e-05
5.47996e-05
5.51702e-05
5.55003e-05
5.57916e-05
5.60466e-05
5.62684e-05
5.64602e-05
5.66257e-05
5.67679e-05
5.68902e-05
5.69958e-05
2.81706e-05
8.86162e-06
2.13083e-05
6.86229e-06
1.61427e-05
5.16557e-06
1.23641e-05
3.7786e-06
9.67177e-06
2.69232e-06
7.78464e-06
1.88713e-06
6.46339e-06
1.32125e-06
5.52316e-06
9.40232e-07
4.83259e-06
6.90569e-07
4.30487e-06
5.27716e-07
3.88616e-06
4.18711e-07
3.54474e-06
3.41416e-07
3.26267e-06
2.82075e-07
3.03017e-06
2.32501e-07
2.84243e-06
1.87735e-07
2.69795e-06
1.44482e-07
2.59758e-06
1.00376e-07
2.54246e-06
5.51136e-08
2.52966e-06
1.27984e-08
-5.12307e-08
4.1621e-05
1.1423e-05
3.80794e-05
1.04039e-05
3.4104e-05
9.14091e-06
3.00893e-05
7.79329e-06
2.63055e-05
6.47618e-06
2.29167e-05
5.27586e-06
1.99938e-05
4.24416e-06
1.75364e-05
3.39769e-06
1.55006e-05
2.72631e-06
1.3824e-05
2.20431e-06
1.24427e-05
1.80004e-06
1.13013e-05
1.48278e-06
1.03571e-05
1.22635e-06
9.57957e-06
1.01e-06
8.94953e-06
8.17771e-07
8.45663e-06
6.37384e-07
8.09727e-06
4.59738e-07
7.87059e-06
2.81792e-07
7.7681e-06
1.15288e-07
-5.29465e-08
4.8221e-05
1.24225e-05
4.64755e-05
1.21494e-05
4.40546e-05
1.15617e-05
4.11285e-05
1.07194e-05
3.79037e-05
9.70101e-06
3.45856e-05
8.59392e-06
3.13493e-05
7.48046e-06
2.83214e-05
6.42561e-06
2.55768e-05
5.47094e-06
2.31462e-05
4.63492e-06
2.1029e-05
3.9172e-06
1.9207e-05
3.3048e-06
1.76553e-05
2.77808e-06
1.635e-05
2.3152e-06
1.5273e-05
1.89482e-06
1.44128e-05
1.49755e-06
1.37648e-05
1.10775e-06
1.33272e-05
7.19409e-07
1.30884e-05
3.54102e-07
4.15484e-08
5.22816e-05
1.28138e-05
5.14221e-05
1.30089e-05
5.00358e-05
1.29481e-05
4.81313e-05
1.26239e-05
4.5777e-05
1.20553e-05
4.30864e-05
1.12845e-05
4.01969e-05
1.03699e-05
3.7247e-05
9.3755e-06
3.43574e-05
8.36056e-06
3.16204e-05
7.37191e-06
2.90977e-05
6.43994e-06
2.6824e-05
5.57847e-06
2.48148e-05
4.78731e-06
2.30739e-05
4.05604e-06
2.16009e-05
3.36786e-06
2.03953e-05
2.70314e-06
1.94592e-05
2.04384e-06
1.87952e-05
1.38342e-06
1.83931e-05
7.56156e-07
2.51259e-07
5.49486e-05
1.28839e-05
5.4583e-05
1.33746e-05
5.38473e-05
1.36838e-05
5.26936e-05
1.37775e-05
5.11115e-05
1.36374e-05
4.91317e-05
1.32643e-05
4.68227e-05
1.26789e-05
4.42797e-05
1.19185e-05
4.16102e-05
1.103e-05
3.89196e-05
1.00625e-05
3.63e-05
9.05952e-06
3.3825e-05
8.0535e-06
3.15486e-05
7.06369e-06
2.95087e-05
6.09601e-06
2.77314e-05
5.14511e-06
2.62366e-05
4.19793e-06
2.50409e-05
3.23952e-06
2.41577e-05
2.26665e-06
2.3585e-05
1.32885e-06
5.8436e-07
5.67522e-05
1.27661e-05
5.66804e-05
1.34464e-05
5.63548e-05
1.40093e-05
5.57177e-05
1.44147e-05
5.47274e-05
1.46277e-05
5.33678e-05
1.4624e-05
5.16529e-05
1.43938e-05
4.96276e-05
1.39438e-05
4.73616e-05
1.32959e-05
4.49412e-05
1.2483e-05
4.24577e-05
1.1543e-05
3.9999e-05
1.05121e-05
3.7643e-05
9.41974e-06
3.54546e-05
8.28437e-06
3.34868e-05
7.11291e-06
3.17827e-05
5.90208e-06
3.03781e-05
4.6441e-06
2.93023e-05
3.34245e-06
2.85675e-05
2.06367e-06
1.03979e-06
5.79599e-05
1.25362e-05
5.80687e-05
1.33376e-05
5.8006e-05
1.4072e-05
5.77193e-05
1.47014e-05
5.716e-05
1.5187e-05
5.62914e-05
1.54926e-05
5.50954e-05
1.55897e-05
5.35784e-05
1.54608e-05
5.17721e-05
1.51022e-05
4.97315e-05
1.45237e-05
4.75287e-05
1.37458e-05
4.52455e-05
1.27953e-05
4.29656e-05
1.16996e-05
4.07687e-05
1.04813e-05
3.87268e-05
9.1548e-06
3.69036e-05
7.72526e-06
3.53547e-05
6.19299e-06
3.41274e-05
4.56979e-06
3.32515e-05
2.93958e-06
1.6089e-06
5.87376e-05
1.22414e-05
5.8957e-05
1.31183e-05
5.90626e-05
1.39663e-05
5.90112e-05
1.47528e-05
5.87573e-05
1.54409e-05
5.82587e-05
1.59913e-05
5.74823e-05
1.63661e-05
5.64106e-05
1.65325e-05
5.50463e-05
1.64666e-05
5.34143e-05
1.61557e-05
5.15611e-05
1.5599e-05
4.95507e-05
1.48057e-05
4.74587e-05
1.37916e-05
4.53664e-05
1.25737e-05
4.33547e-05
1.11665e-05
4.15012e-05
9.57874e-06
3.98776e-05
7.81659e-06
3.85481e-05
5.89928e-06
3.7561e-05
3.92676e-06
2.27718e-06
5.91979e-05
1.19131e-05
5.94817e-05
1.28346e-05
5.96924e-05
1.37556e-05
5.97958e-05
1.46495e-05
5.97529e-05
1.54837e-05
5.95237e-05
1.62206e-05
5.90704e-05
1.68193e-05
5.83637e-05
1.72392e-05
5.73874e-05
1.74428e-05
5.61434e-05
1.73997e-05
5.46536e-05
1.70887e-05
5.29605e-05
1.64989e-05
5.11237e-05
1.56284e-05
4.9216e-05
1.44814e-05
4.73178e-05
1.30647e-05
4.5512e-05
1.13845e-05
4.38805e-05
9.44806e-06
4.25007e-05
7.27907e-06
4.1437e-05
4.99048e-06
3.02599e-06
5.94208e-05
1.15728e-05
5.97376e-05
1.25179e-05
6.00097e-05
1.34834e-05
6.02108e-05
1.44484e-05
6.03091e-05
1.53853e-05
6.02696e-05
1.62601e-05
6.00558e-05
1.70331e-05
5.96342e-05
1.76608e-05
5.89787e-05
1.80983e-05
5.80756e-05
1.83028e-05
5.69277e-05
1.82366e-05
5.5557e-05
1.78696e-05
5.40046e-05
1.71807e-05
5.23292e-05
1.61568e-05
5.06029e-05
1.47911e-05
4.89065e-05
1.30809e-05
4.73253e-05
1.10292e-05
4.59445e-05
8.65989e-06
4.48404e-05
6.0946e-06
3.83427e-06
5.94654e-05
1.12355e-05
5.97932e-05
1.21901e-05
6.00961e-05
1.31805e-05
6.0354e-05
1.41905e-05
6.05419e-05
1.51974e-05
6.06304e-05
1.61716e-05
6.05871e-05
1.70764e-05
6.03792e-05
1.78688e-05
5.99766e-05
1.85009e-05
5.9357e-05
1.89224e-05
5.851e-05
1.90837e-05
5.74408e-05
1.89388e-05
5.61732e-05
1.84483e-05
5.47496e-05
1.75804e-05
5.32295e-05
1.63112e-05
5.16859e-05
1.46245e-05
5.02012e-05
1.25139e-05
4.88624e-05
9.99875e-06
4.77523e-05
7.2047e-06
4.68024e-06
5.93761e-05
1.09117e-05
5.96996e-05
1.18666e-05
6.00115e-05
1.28686e-05
6.02967e-05
1.39053e-05
6.0536e-05
1.49581e-05
6.07056e-05
1.6002e-05
6.07779e-05
1.7004e-05
6.07232e-05
1.79235e-05
6.05117e-05
1.87124e-05
6.01173e-05
1.93168e-05
5.95215e-05
1.96794e-05
5.8718e-05
1.97423e-05
5.7716e-05
1.94503e-05
5.65424e-05
1.8754e-05
5.52423e-05
1.76112e-05
5.38773e-05
1.59895e-05
5.2522e-05
1.38692e-05
5.12596e-05
1.12612e-05
5.0174e-05
8.29027e-06
5.54282e-06
5.91876e-05
1.06087e-05
5.94958e-05
1.15584e-05
5.98011e-05
1.25633e-05
6.00924e-05
1.36139e-05
6.0355e-05
1.46956e-05
6.05701e-05
1.57869e-05
6.07151e-05
1.6859e-05
6.07644e-05
1.78742e-05
6.06907e-05
1.87861e-05
6.04676e-05
1.954e-05
6.00729e-05
2.00741e-05
5.94928e-05
2.03224e-05
5.87258e-05
2.02174e-05
5.77856e-05
1.96941e-05
5.67035e-05
1.86934e-05
5.55277e-05
1.71653e-05
5.43219e-05
1.5075e-05
5.3161e-05
1.2422e-05
5.2125e-05
9.32628e-06
6.40284e-06
5.89271e-05
1.03316e-05
5.92124e-05
1.12731e-05
5.95001e-05
1.22755e-05
5.97822e-05
1.33318e-05
6.00475e-05
1.44303e-05
6.02816e-05
1.55529e-05
6.04665e-05
1.66741e-05
6.05809e-05
1.77598e-05
6.06011e-05
1.87659e-05
6.05025e-05
1.96386e-05
6.02623e-05
2.03142e-05
5.9863e-05
2.07217e-05
5.92956e-05
2.07847e-05
5.85639e-05
2.04259e-05
5.76866e-05
1.95707e-05
5.66988e-05
1.8153e-05
5.56514e-05
1.61225e-05
5.46081e-05
1.34653e-05
5.36404e-05
1.02939e-05
7.24395e-06
5.86171e-05
1.00839e-05
5.88743e-05
1.1016e-05
5.91368e-05
1.2013e-05
5.93988e-05
1.30698e-05
5.96522e-05
1.41769e-05
5.9886e-05
1.5319e-05
6.00863e-05
1.64738e-05
6.0236e-05
1.76101e-05
6.03153e-05
1.86866e-05
6.03028e-05
1.96511e-05
6.01769e-05
2.04401e-05
5.99189e-05
2.09797e-05
5.95157e-05
2.11879e-05
5.89638e-05
2.09778e-05
5.82717e-05
2.02627e-05
5.74624e-05
1.89624e-05
5.65732e-05
1.70116e-05
5.56548e-05
1.43838e-05
5.47677e-05
1.1181e-05
8.05337e-06
5.82776e-05
9.86752e-06
5.85033e-05
1.07903e-05
5.87357e-05
1.17807e-05
5.89705e-05
1.28349e-05
5.9202e-05
1.39454e-05
5.94222e-05
1.50989e-05
5.96205e-05
1.62755e-05
5.97837e-05
1.74469e-05
5.98961e-05
1.85743e-05
5.99395e-05
1.96077e-05
5.9895e-05
2.04846e-05
5.97444e-05
2.11303e-05
5.9473e-05
2.14593e-05
5.90721e-05
2.13786e-05
5.85426e-05
2.07923e-05
5.78964e-05
1.96085e-05
5.71581e-05
1.77499e-05
5.63641e-05
1.51778e-05
5.55631e-05
1.1982e-05
8.82243e-06
5.79282e-05
9.68316e-06
5.81211e-05
1.05974e-05
5.83208e-05
1.15809e-05
5.85246e-05
1.26311e-05
5.87285e-05
1.37415e-05
5.89269e-05
1.49005e-05
5.91122e-05
1.60902e-05
5.92746e-05
1.72845e-05
5.94018e-05
1.84471e-05
5.94792e-05
1.95302e-05
5.94909e-05
2.04729e-05
5.94203e-05
2.12009e-05
5.92522e-05
2.16274e-05
5.89754e-05
2.16555e-05
5.85844e-05
2.11833e-05
5.80822e-05
2.01107e-05
5.74813e-05
1.83509e-05
5.6804e-05
1.58551e-05
5.60875e-05
1.26985e-05
9.54699e-06
5.75924e-05
9.52956e-06
5.77533e-05
1.04364e-05
5.79207e-05
1.14135e-05
5.8093e-05
1.24588e-05
5.82678e-05
1.35668e-05
5.84412e-05
1.4727e-05
5.86082e-05
1.59232e-05
5.87617e-05
1.7131e-05
5.88925e-05
1.83163e-05
5.89893e-05
1.94334e-05
5.90389e-05
2.04233e-05
5.90268e-05
2.1213e-05
5.89384e-05
2.17158e-05
5.87606e-05
2.18332e-05
5.84837e-05
2.14602e-05
5.81029e-05
2.04915e-05
5.76198e-05
1.8834e-05
5.70435e-05
1.64313e-05
5.64022e-05
1.33398e-05
1.02275e-05
5.7301e-05
9.403e-06
5.74335e-05
1.03039e-05
5.75719e-05
1.12751e-05
5.77158e-05
1.2315e-05
5.7864e-05
1.34186e-05
5.80144e-05
1.45766e-05
5.81637e-05
1.57739e-05
5.83069e-05
1.69877e-05
5.84374e-05
1.81859e-05
5.8546e-05
1.93248e-05
5.86219e-05
2.03474e-05
5.86523e-05
2.11826e-05
5.86232e-05
2.17448e-05
5.85205e-05
2.19359e-05
5.83311e-05
2.16496e-05
5.80442e-05
2.07784e-05
5.76522e-05
1.9226e-05
5.7151e-05
1.69326e-05
5.65659e-05
1.39249e-05
1.08696e-05
5.70977e-05
5.72075e-05
5.73256e-05
5.74518e-05
5.75852e-05
5.77241e-05
5.78657e-05
5.8006e-05
5.81391e-05
5.82574e-05
5.83513e-05
5.84087e-05
5.84163e-05
5.83592e-05
5.82222e-05
5.7991e-05
5.76521e-05
5.71981e-05
5.65971e-05
)
;

boundaryField
{
    zeroGradientPlanes
    {
        type            calculated;
        value           nonuniform List<scalar> 
80
(
-1.50163e-06
-5.21856e-06
-8.71782e-06
-1.18198e-05
-1.44957e-05
-1.67679e-05
-1.86768e-05
-2.02624e-05
-2.15543e-05
-2.25658e-05
-2.32914e-05
-2.37075e-05
-2.37753e-05
-2.34456e-05
-2.26641e-05
-2.13795e-05
-1.95493e-05
-1.7134e-05
-1.40963e-05
-1.04757e-05
2.58089e-06
7.76982e-06
1.29939e-05
1.81834e-05
2.32519e-05
2.81121e-05
3.26824e-05
3.68927e-05
4.06882e-05
4.40321e-05
4.69063e-05
4.93114e-05
5.1265e-05
5.27993e-05
5.39583e-05
5.4794e-05
5.53629e-05
5.57217e-05
5.59238e-05
5.58035e-05
1.26167e-06
4.38479e-06
7.27088e-06
9.727e-06
1.17006e-05
1.31961e-05
1.42471e-05
1.49022e-05
1.52165e-05
1.52464e-05
1.50458e-05
1.46647e-05
1.41472e-05
1.35317e-05
1.28504e-05
1.21301e-05
1.13922e-05
1.06534e-05
9.92679e-06
9.2215e-06
9.3011e-06
1.01941e-05
1.11569e-05
1.21888e-05
1.32852e-05
1.44378e-05
1.56323e-05
1.68475e-05
1.80528e-05
1.92064e-05
2.02536e-05
2.11252e-05
2.17373e-05
2.19931e-05
2.17865e-05
2.10097e-05
1.95649e-05
1.73867e-05
1.45259e-05
1.16631e-05
)
;
    }
    inlet
    {
        type            calculated;
        value           nonuniform List<scalar> 
20
(
-5e-05
-5e-05
-5e-05
-5e-05
-5e-05
-5e-05
-5e-05
-5e-05
-5e-05
-5e-05
-5e-05
-5e-05
-5e-05
-5e-05
-5e-05
-5e-05
-5e-05
-5e-05
-5e-05
-5e-05
)
;
    }
    plate
    {
        type            calculated;
        value           uniform 0;
    }
    frontAndBack
    {
        type            empty;
        value           nonuniform List<scalar> 0();
    }
}


// ************************************************************************* //
