/*--------------------------------*- C++ -*----------------------------------*\
| =========                 |                                                 |
| \\      /  F ield         | OpenFOAM: The Open Source CFD Toolbox           |
|  \\    /   O peration     | Version:  v2012                                 |
|   \\  /    A nd           | Website:  www.openfoam.com                      |
|    \\/     M anipulation  |                                                 |
\*---------------------------------------------------------------------------*/
FoamFile
{
    version     2.0;
    format      ascii;
    class       volVectorField;
    location    "0.1";
    object      U;
}
// * * * * * * * * * * * * * * * * * * * * * * * * * * * * * * * * * * * * * //

dimensions      [0 1 -1 0 0 0 0];


internalField   nonuniform List<vector> 
800
(
(0.997901 0.0163746 0)
(0.989526 0.0592337 0)
(0.97879 0.106315 0)
(0.967669 0.155943 0)
(0.956627 0.207413 0)
(0.945794 0.260523 0)
(0.935241 0.315319 0)
(0.924982 0.371902 0)
(0.914991 0.430245 0)
(0.905205 0.490013 0)
(0.895532 0.550362 0)
(0.88584 0.609761 0)
(0.875958 0.665823 0)
(0.865688 0.715154 0)
(0.854714 0.753251 0)
(0.842209 0.774497 0)
(0.826931 0.772327 0)
(0.810783 0.739245 0)
(0.801804 0.665892 0)
(0.783539 0.540767 0)
(0.998226 0.0194664 0)
(0.990574 0.0645237 0)
(0.980392 0.112715 0)
(0.969816 0.163072 0)
(0.95939 0.215117 0)
(0.949319 0.268741 0)
(0.939753 0.32403 0)
(0.930815 0.381105 0)
(0.922633 0.439946 0)
(0.915369 0.500213 0)
(0.909242 0.561061 0)
(0.904526 0.620967 0)
(0.90153 0.677608 0)
(0.90054 0.727799 0)
(0.901651 0.767538 0)
(0.904444 0.792249 0)
(0.907779 0.79732 0)
(0.910297 0.778582 0)
(0.910135 0.731595 0)
(0.899516 0.651318 0)
(0.99867 0.0223418 0)
(0.992174 0.0698771 0)
(0.983041 0.11929 0)
(0.973511 0.170332 0)
(0.96425 0.222788 0)
(0.955574 0.276632 0)
(0.947753 0.33195 0)
(0.94105 0.388809 0)
(0.935767 0.447089 0)
(0.932262 0.506304 0)
(0.930941 0.565419 0)
(0.932209 0.622714 0)
(0.936385 0.675733 0)
(0.943562 0.721351 0)
(0.95344 0.756014 0)
(0.965148 0.776174 0)
(0.977181 0.778924 0)
(0.987461 0.762642 0)
(0.993238 0.727323 0)
(0.990918 0.675055 0)
(0.999061 0.0243931 0)
(0.993848 0.0740485 0)
(0.986138 0.124505 0)
(0.978073 0.176034 0)
(0.970414 0.22862 0)
(0.963587 0.282285 0)
(0.957971 0.33707 0)
(0.953946 0.392936 0)
(0.951922 0.449609 0)
(0.95233 0.506426 0)
(0.955585 0.562192 0)
(0.961992 0.615128 0)
(0.971644 0.662914 0)
(0.984284 0.702892 0)
(0.999206 0.732392 0)
(1.01521 0.749178 0)
(1.03069 0.751904 0)
(1.04375 0.740471 0)
(1.05251 0.716177 0)
(1.05533 0.681715 0)
(0.999365 0.0258814 0)
(0.995419 0.0773058 0)
(0.989349 0.128645 0)
(0.98304 0.180494 0)
(0.97728 0.232976 0)
(0.972574 0.286128 0)
(0.969375 0.339921 0)
(0.968121 0.394196 0)
(0.969249 0.448539 0)
(0.97316 0.502162 0)
(0.980159 0.55383 0)
(0.990353 0.601874 0)
(1.00357 0.644318 0)
(1.01925 0.679117 0)
(1.03647 0.704472 0)
(1.05398 0.719159 0)
(1.07033 0.722793 0)
(1.08412 0.715932 0)
(1.09418 0.700019 0)
(1.09979 0.677165 0)
(0.999601 0.0269421 0)
(0.996841 0.0797555 0)
(0.992491 0.13177 0)
(0.988085 0.183751 0)
(0.984375 0.235898 0)
(0.981891 0.288236 0)
(0.981108 0.340662 0)
(0.982467 0.39291 0)
(0.986362 0.444468 0)
(0.993101 0.494505 0)
(1.00283 0.541852 0)
(1.01545 0.58507 0)
(1.03059 0.622604 0)
(1.04755 0.653006 0)
(1.06535 0.675176 0)
(1.08288 0.688572 0)
(1.099 0.693308 0)
(1.11274 0.690137 0)
(1.1234 0.68032 0)
(1.13065 0.665409 0)
(0.999784 0.0276268 0)
(0.998106 0.0813994 0)
(0.995454 0.133823 0)
(0.992978 0.185719 0)
(0.991336 0.237312 0)
(0.991032 0.288591 0)
(0.992514 0.339384 0)
(0.996178 0.389349 0)
(1.00234 0.43793 0)
(1.01118 0.484324 0)
(1.0227 0.527508 0)
(1.03666 0.566324 0)
(1.05255 0.599633 0)
(1.06967 0.626485 0)
(1.08712 0.646287 0)
(1.10398 0.658901 0)
(1.11941 0.664663 0)
(1.13274 0.664316 0)
(1.14356 0.658879 0)
(1.1517 0.649495 0)
(0.999927 0.0279812 0)
(0.999217 0.0822706 0)
(0.998178 0.13481 0)
(0.99757 0.186402 0)
(0.997916 0.237248 0)
(0.999649 0.287294 0)
(1.00316 0.336308 0)
(1.00875 0.383904 0)
(1.01666 0.429529 0)
(1.02695 0.472462 0)
(1.03951 0.51186 0)
(1.054 0.546849 0)
(1.0699 0.576646 0)
(1.08653 0.600683 0)
(1.10316 0.618702 0)
(1.11904 0.630792 0)
(1.13357 0.637367 0)
(1.1463 0.639092 0)
(1.15696 0.636779 0)
(1.16548 0.631289 0)
(1.00004 0.0280512 0)
(1.00019 0.0824307 0)
(1.00064 0.134792 0)
(1.00178 0.185869 0)
(1.00397 0.235816 0)
(1.00754 0.284522 0)
(1.01278 0.331714 0)
(1.01994 0.376987 0)
(1.02913 0.419823 0)
(1.04033 0.459609 0)
(1.05335 0.49569 0)
(1.06783 0.527442 0)
(1.08327 0.554369 0)
(1.09908 0.576176 0)
(1.11465 0.59282 0)
(1.12943 0.60451 0)
(1.14297 0.61167 0)
(1.15497 0.614878 0)
(1.16526 0.614788 0)
(1.1738 0.612066 0)
(1.00013 0.0278763 0)
(1.00104 0.0819476 0)
(1.00286 0.13385 0)
(1.0056 0.184224 0)
(1.00944 0.233156 0)
(1.01461 0.280479 0)
(1.02131 0.325883 0)
(1.02967 0.368968 0)
(1.03973 0.409268 0)
(1.05142 0.446284 0)
(1.06449 0.479532 0)
(1.07861 0.508598 0)
(1.09332 0.533203 0)
(1.10813 0.553242 0)
(1.12255 0.568805 0)
(1.13619 0.580159 0)
(1.1487 0.587713 0)
(1.1599 0.591966 0)
(1.16966 0.593455 0)
(1.17799 0.592711 0)
(1.00021 0.0274873 0)
(1.0018 0.0808845 0)
(1.00485 0.132072 0)
(1.00903 0.181583 0)
(1.01433 0.229423 0)
(1.02087 0.275367 0)
(1.02874 0.319078 0)
(1.03799 0.360167 0)
(1.04861 0.398226 0)
(1.06046 0.432865 0)
(1.07331 0.463745 0)
(1.08684 0.490616 0)
(1.10067 0.513359 0)
(1.11439 0.531997 0)
(1.12765 0.546701 0)
(1.14014 0.557764 0)
(1.15162 0.56557 0)
(1.16197 0.570554 0)
(1.1711 0.573165 0)
(1.17903 0.57384 0)
(1.00028 0.0269059 0)
(1.0025 0.0792957 0)
(1.00667 0.129541 0)
(1.01213 0.17806 0)
(1.01871 0.224769 0)
(1.02639 0.269381 0)
(1.03518 0.311532 0)
(1.04505 0.350848 0)
(1.05596 0.386979 0)
(1.06774 0.419624 0)
(1.08017 0.448561 0)
(1.09298 0.473667 0)
(1.10585 0.494933 0)
(1.11847 0.512471 0)
(1.13057 0.526496 0)
(1.14193 0.537312 0)
(1.15239 0.545275 0)
(1.16185 0.550772 0)
(1.17028 0.554187 0)
(1.17769 0.555887 0)
(1.00035 0.0261435 0)
(1.00317 0.0772225 0)
(1.00838 0.126332 0)
(1.01498 0.173766 0)
(1.02265 0.219337 0)
(1.03126 0.262694 0)
(1.04075 0.303446 0)
(1.05103 0.341229 0)
(1.06202 0.375739 0)
(1.07355 0.40675 0)
(1.08544 0.434128 0)
(1.09745 0.457843 0)
(1.10933 0.477962 0)
(1.12086 0.494651 0)
(1.13183 0.508154 0)
(1.14208 0.518772 0)
(1.15152 0.52684 0)
(1.16009 0.532704 0)
(1.16777 0.536703 0)
(1.17457 0.539154 0)
(1.00044 0.0251996 0)
(1.00385 0.0746904 0)
(1.01003 0.122506 0)
(1.01765 0.168796 0)
(1.02625 0.213256 0)
(1.03562 0.25546 0)
(1.04561 0.294988 0)
(1.05612 0.33148 0)
(1.06703 0.364665 0)
(1.0782 0.394375 0)
(1.08946 0.420539 0)
(1.10062 0.443188 0)
(1.11151 0.462444 0)
(1.12196 0.478504 0)
(1.13183 0.491626 0)
(1.14101 0.502106 0)
(1.14945 0.510259 0)
(1.15712 0.516401 0)
(1.16402 0.520837 0)
(1.17016 0.523849 0)
(1.00054 0.0240608 0)
(1.00459 0.0717124 0)
(1.01168 0.118116 0)
(1.02021 0.163239 0)
(1.02959 0.206639 0)
(1.03955 0.247811 0)
(1.04989 0.286295 0)
(1.06049 0.321731 0)
(1.07121 0.353872 0)
(1.08193 0.382583 0)
(1.09251 0.407841 0)
(1.10282 0.429714 0)
(1.11273 0.448357 0)
(1.12213 0.463984 0)
(1.13093 0.476859 0)
(1.13907 0.48727 0)
(1.14654 0.495515 0)
(1.15331 0.501888 0)
(1.15941 0.506668 0)
(1.16486 0.510113 0)
(1.00069 0.0227045 0)
(1.00542 0.0683016 0)
(1.01339 0.113222 0)
(1.02271 0.157191 0)
(1.03274 0.199607 0)
(1.04314 0.239873 0)
(1.0537 0.277492 0)
(1.06427 0.312093 0)
(1.07472 0.343443 0)
(1.08494 0.371429 0)
(1.09484 0.396053 0)
(1.1043 0.417406 0)
(1.11326 0.435659 0)
(1.12165 0.451034 0)
(1.12943 0.463792 0)
(1.13657 0.474211 0)
(1.14308 0.482577 0)
(1.14898 0.489165 0)
(1.15428 0.494236 0)
(1.15902 0.49803 0)
(1.0009 0.0210917 0)
(1.00638 0.0644678 0)
(1.01515 0.107891 0)
(1.02515 0.150756 0)
(1.03568 0.19228 0)
(1.0464 0.231775 0)
(1.05707 0.2687 0)
(1.06754 0.302674 0)
(1.07768 0.333464 0)
(1.0874 0.360968 0)
(1.09662 0.385197 0)
(1.10528 0.406254 0)
(1.11334 0.424313 0)
(1.12078 0.439595 0)
(1.1276 0.452356 0)
(1.1338 0.462864 0)
(1.1394 0.47139 0)
(1.14444 0.478197 0)
(1.14896 0.483532 0)
(1.153 0.487623 0)
(1.00118 0.0191007 0)
(1.00745 0.0601 0)
(1.01692 0.102036 0)
(1.02744 0.143859 0)
(1.03834 0.184586 0)
(1.04926 0.223439 0)
(1.05997 0.259839 0)
(1.07029 0.293389 0)
(1.08011 0.323847 0)
(1.08936 0.35111 0)
(1.09796 0.375187 0)
(1.10589 0.396175 0)
(1.11315 0.414242 0)
(1.11974 0.429601 0)
(1.12568 0.442496 0)
(1.13102 0.453183 0)
(1.1358 0.461923 0)
(1.14005 0.468968 0)
(1.14384 0.474557 0)
(1.14721 0.478911 0)
(1.00151 0.0165025 0)
(1.00853 0.0549467 0)
(1.0185 0.095377 0)
(1.02937 0.136174 0)
(1.0405 0.176142 0)
(1.05154 0.214419 0)
(1.06226 0.250398 0)
(1.07246 0.283662 0)
(1.08202 0.313962 0)
(1.09088 0.341184 0)
(1.09898 0.365325 0)
(1.10633 0.38647 0)
(1.11292 0.404768 0)
(1.1188 0.420416 0)
(1.12402 0.433636 0)
(1.12863 0.444669 0)
(1.13268 0.453755 0)
(1.13626 0.461133 0)
(1.13941 0.467029 0)
(1.1422 0.471652 0)
(1.00175 0.0138211 0)
(1.00924 0.050138 0)
(1.01947 0.0893634 0)
(1.03052 0.129324 0)
(1.04178 0.168657 0)
(1.0529 0.206442 0)
(1.06363 0.242047 0)
(1.07379 0.275049 0)
(1.08323 0.305192 0)
(1.09189 0.332357 0)
(1.09974 0.356535 0)
(1.10676 0.3778 0)
(1.11298 0.39629 0)
(1.11844 0.412186 0)
(1.12321 0.425698 0)
(1.12734 0.437048 0)
(1.13091 0.446464 0)
(1.13398 0.454169 0)
(1.13662 0.460379 0)
(1.13888 0.465297 0)
(0.637243 0.352358 0)
(0.490219 0.222477 0)
(0.367095 0.135453 0)
(0.278004 0.0795762 0)
(0.215251 0.0449947 0)
(0.171013 0.0245474 0)
(0.139973 0.0130903 0)
(0.118097 0.00702199 0)
(0.102309 0.00396869 0)
(0.0904757 0.00247859 0)
(0.0812394 0.00173463 0)
(0.0737864 0.00131862 0)
(0.0676487 0.00103808 0)
(0.0625673 0.000813452 0)
(0.0584075 0.00061417 0)
(0.055113 0.000427842 0)
(0.0526865 0.000248303 0)
(0.0511492 8.00885e-05 0)
(0.0504461 -5.85097e-05 0)
(0.0513073 -0.000330475 0)
(0.86205 0.538291 0)
(0.799358 0.422435 0)
(0.721426 0.317522 0)
(0.639707 0.230161 0)
(0.560881 0.161843 0)
(0.488847 0.11141 0)
(0.425769 0.0759959 0)
(0.372248 0.0520584 0)
(0.327723 0.0362461 0)
(0.291024 0.0258513 0)
(0.260826 0.0189128 0)
(0.235914 0.0141235 0)
(0.215302 0.0106646 0)
(0.198266 0.00804074 0)
(0.184321 0.00595322 0)
(0.173182 0.00421776 0)
(0.164732 0.00272067 0)
(0.158933 0.00142045 0)
(0.155579 0.000372196 0)
(0.156006 -0.000717279 0)
(0.97728 0.609208 0)
(0.949729 0.533359 0)
(0.907256 0.451981 0)
(0.852649 0.371468 0)
(0.789997 0.296937 0)
(0.723596 0.231869 0)
(0.657343 0.177885 0)
(0.594288 0.134943 0)
(0.536416 0.101874 0)
(0.484714 0.0769458 0)
(0.439405 0.0583328 0)
(0.400232 0.0444005 0)
(0.366718 0.0338318 0)
(0.338347 0.0256361 0)
(0.314687 0.0190992 0)
(0.29544 0.0137204 0)
(0.280467 0.00916524 0)
(0.269719 0.0052722 0)
(0.26284 0.00213378 0)
(0.261566 -0.000332549 0)
(1.05137 0.639232 0)
(1.03914 0.587952 0)
(1.01662 0.528288 0)
(0.983322 0.463479 0)
(0.940098 0.397214 0)
(0.888887 0.333047 0)
(0.832316 0.273874 0)
(0.773248 0.221598 0)
(0.714343 0.177063 0)
(0.657754 0.1402 0)
(0.605003 0.110302 0)
(0.557015 0.0863237 0)
(0.514245 0.0671305 0)
(0.476845 0.0516624 0)
(0.444817 0.0390157 0)
(0.418133 0.0284709 0)
(0.396822 0.0195023 0)
(0.380952 0.0118291 0)
(0.370111 0.0055948 0)
(0.366425 0.00114958 0)
(1.10088 0.648649 0)
(1.09681 0.613231 0)
(1.08596 0.570073 0)
(1.06705 0.52035 0)
(1.03948 0.465973 0)
(1.00345 0.409333 0)
(0.960022 0.352953 0)
(0.910897 0.299121 0)
(0.858184 0.2496 0)
(0.804076 0.205475 0)
(0.750585 0.167161 0)
(0.699378 0.134509 0)
(0.651717 0.106991 0)
(0.608491 0.0838758 0)
(0.570314 0.0643783 0)
(0.537617 0.0477677 0)
(0.510769 0.033451 0)
(0.490097 0.0210937 0)
(0.475266 0.010928 0)
(0.468838 0.00386611 0)
(1.13469 0.646237 0)
(1.13539 0.621712 0)
(1.13162 0.590715 0)
(1.12212 0.553402 0)
(1.10585 0.510496 0)
(1.08222 0.463266 0)
(1.05118 0.413398 0)
(1.01337 0.362777 0)
(0.969964 0.313232 0)
(0.922587 0.266311 0)
(0.873068 0.223119 0)
(0.823238 0.184266 0)
(0.774774 0.149902 0)
(0.729104 0.119818 0)
(0.687395 0.0935756 0)
(0.650587 0.0706346 0)
(0.619469 0.0504909 0)
(0.594733 0.0328601 0)
(0.576237 0.0181223 0)
(0.567039 0.00784324 0)
(1.15748 0.636774 0)
(1.16105 0.619882 0)
(1.1617 0.597759 0)
(1.15837 0.570109 0)
(1.15002 0.536991 0)
(1.13575 0.498883 0)
(1.11501 0.456686 0)
(1.08766 0.411654 0)
(1.05409 0.365252 0)
(1.0152 0.318969 0)
(0.972312 0.274144 0)
(0.927 0.231819 0)
(0.880958 0.192667 0)
(0.835842 0.156992 0)
(0.793178 0.124788 0)
(0.754318 0.0958363 0)
(0.720462 0.0698536 0)
(0.692694 0.0467122 0)
(0.671135 0.0270069 0)
(0.659377 0.013026 0)
(1.17222 0.623115 0)
(1.1775 0.611672 0)
(1.1809 0.596053 0)
(1.18161 0.575786 0)
(1.17869 0.550594 0)
(1.17126 0.520469 0)
(1.15853 0.485738 0)
(1.13997 0.44707 0)
(1.11543 0.405436 0)
(1.08517 0.362009 0)
(1.04995 0.318026 0)
(1.0109 0.274645 0)
(0.969444 0.232821 0)
(0.92719 0.193233 0)
(0.885784 0.156269 0)
(0.846822 0.122068 0)
(0.811813 0.0906396 0)
(0.782193 0.062092 0)
(0.758357 0.0372923 0)
(0.744431 0.0192928 0)
(1.18097 0.607139 0)
(1.1872 0.599631 0)
(1.19227 0.588799 0)
(1.19555 0.57413 0)
(1.19629 0.555193 0)
(1.19369 0.531714 0)
(1.18695 0.503641 0)
(1.17537 0.471195 0)
(1.15847 0.434889 0)
(1.1361 0.395498 0)
(1.1085 0.353986 0)
(1.07633 0.3114 0)
(1.04063 0.268751 0)
(1.00277 0.226913 0)
(0.964304 0.186553 0)
(0.926885 0.148126 0)
(0.89219 0.11194 0)
(0.861911 0.0783787 0)
(0.836667 0.0486138 0)
(0.821092 0.0264717 0)
(1.18523 0.59012 0)
(1.19188 0.585473 0)
(1.19787 0.578179 0)
(1.20271 0.567738 0)
(1.20583 0.55367 0)
(1.20655 0.535567 0)
(1.20412 0.513151 0)
(1.19783 0.486335 0)
(1.18707 0.455266 0)
(1.17142 0.420345 0)
(1.15075 0.382207 0)
(1.12531 0.341663 0)
(1.09575 0.29962 0)
(1.0631 0.256979 0)
(1.02867 0.21455 0)
(0.994033 0.17301 0)
(0.96088 0.132929 0)
(0.931034 0.0949559 0)
(0.905251 0.0605739 0)
(0.888614 0.0343578 0)
(1.18609 0.572941 0)
(1.1928 0.570386 0)
(1.19919 0.565714 0)
(1.20489 0.558463 0)
(1.20945 0.548154 0)
(1.21233 0.534324 0)
(1.2129 0.516574 0)
(1.21048 0.494621 0)
(1.20443 0.468347 0)
(1.1942 0.437845 0)
(1.17946 0.403436 0)
(1.16014 0.365654 0)
(1.13652 0.325204 0)
(1.10929 0.282894 0)
(1.07948 0.239555 0)
(1.04844 0.195979 0)
(1.01775 0.152923 0)
(0.989256 0.111265 0)
(0.963728 0.0727782 0)
(0.946631 0.0427311 0)
(1.1844 0.556221 0)
(1.19092 0.555205 0)
(1.19733 0.552483 0)
(1.20338 0.547639 0)
(1.20871 0.540217 0)
(1.2129 0.529747 0)
(1.21542 0.515771 0)
(1.2157 0.497891 0)
(1.21311 0.475813 0)
(1.2071 0.449398 0)
(1.19718 0.418699 0)
(1.1831 0.383981 0)
(1.16487 0.345716 0)
(1.14286 0.304542 0)
(1.1178 0.261215 0)
(1.09078 0.21655 0)
(1.06318 0.171408 0)
(1.03674 0.12684 0)
(1.01214 0.0848661 0)
(0.995154 0.0513721 0)
(1.18081 0.540396 0)
(1.18695 0.54052 0)
(1.19314 0.539256 0)
(1.19916 0.53623 0)
(1.20477 0.531021 0)
(1.20963 0.52317 0)
(1.21332 0.512204 0)
(1.21536 0.497663 0)
(1.2152 0.479143 0)
(1.2123 0.45634 0)
(1.20614 0.4291 0)
(1.19636 0.397454 0)
(1.18279 0.361642 0)
(1.16553 0.322104 0)
(1.14505 0.279462 0)
(1.12215 0.234478 0)
(1.09797 0.188045 0)
(1.07405 0.141325 0)
(1.0509 0.0965305 0)
(1.03454 0.0600757 0)
(1.17584 0.525769 0)
(1.18149 0.526748 0)
(1.18725 0.52658 0)
(1.19299 0.524932 0)
(1.19852 0.521416 0)
(1.20359 0.515598 0)
(1.20785 0.507006 0)
(1.21093 0.495155 0)
(1.21236 0.479577 0)
(1.21165 0.459861 0)
(1.20831 0.4357 0)
(1.20192 0.406937 0)
(1.1922 0.373606 0)
(1.17909 0.33595 0)
(1.1628 0.294431 0)
(1.14389 0.249709 0)
(1.12322 0.202655 0)
(1.1021 0.154479 0)
(1.08077 0.107532 0)
(1.06544 0.0686634 0)
(1.16992 0.512551 0)
(1.17498 0.514179 0)
(1.18021 0.514844 0)
(1.18549 0.514244 0)
(1.19068 0.512022 0)
(1.19561 0.507769 0)
(1.20001 0.501029 0)
(1.20359 0.49131 0)
(1.20595 0.478114 0)
(1.20669 0.460962 0)
(1.20536 0.439443 0)
(1.20155 0.413258 0)
(1.19493 0.38227 0)
(1.18531 0.346549 0)
(1.17273 0.30639 0)
(1.15751 0.262335 0)
(1.14027 0.215189 0)
(1.12204 0.166169 0)
(1.10274 0.117703 0)
(1.08874 0.0769897 0)
(1.16343 0.500876 0)
(1.16786 0.503007 0)
(1.17246 0.50431 0)
(1.17716 0.504508 0)
(1.18186 0.503271 0)
(1.18642 0.500214 0)
(1.19065 0.494898 0)
(1.19432 0.48684 0)
(1.19714 0.475529 0)
(1.19877 0.460451 0)
(1.19882 0.441125 0)
(1.19691 0.417153 0)
(1.1927 0.38827 0)
(1.18594 0.354395 0)
(1.17656 0.315679 0)
(1.16465 0.272539 0)
(1.15061 0.225697 0)
(1.1352 0.176345 0)
(1.11799 0.126932 0)
(1.10551 0.0849262 0)
(1.15675 0.490802 0)
(1.16054 0.493332 0)
(1.16448 0.495129 0)
(1.16853 0.495937 0)
(1.17263 0.495445 0)
(1.17668 0.493289 0)
(1.18056 0.489049 0)
(1.18408 0.482256 0)
(1.18703 0.472397 0)
(1.18913 0.458942 0)
(1.19008 0.441373 0)
(1.18954 0.419226 0)
(1.18718 0.392142 0)
(1.18273 0.35993 0)
(1.17601 0.322621 0)
(1.16699 0.28052 0)
(1.15583 0.234267 0)
(1.14302 0.185006 0)
(1.1278 0.135145 0)
(1.11688 0.0923509 0)
(1.15034 0.482369 0)
(1.15349 0.485218 0)
(1.15678 0.487394 0)
(1.16019 0.488654 0)
(1.16368 0.4887 0)
(1.16718 0.487188 0)
(1.17061 0.483714 0)
(1.17385 0.477826 0)
(1.17674 0.469024 0)
(1.17906 0.456777 0)
(1.18058 0.440553 0)
(1.181 0.419851 0)
(1.18004 0.394257 0)
(1.1774 0.363502 0)
(1.17285 0.327528 0)
(1.16623 0.286551 0)
(1.15752 0.241133 0)
(1.14696 0.192361 0)
(1.13348 0.142507 0)
(1.124 0.0993828 0)
(1.14478 0.475349 0)
(1.14737 0.478427 0)
(1.15008 0.480848 0)
(1.15291 0.482383 0)
(1.15584 0.482761 0)
(1.15884 0.481659 0)
(1.16186 0.478698 0)
(1.16481 0.473449 0)
(1.16759 0.465432 0)
(1.17002 0.454128 0)
(1.17191 0.439002 0)
(1.17302 0.419536 0)
(1.17308 0.39528 0)
(1.1718 0.365908 0)
(1.16891 0.331295 0)
(1.16414 0.29158 0)
(1.15733 0.247258 0)
(1.14848 0.199351 0)
(1.13628 0.149916 0)
(1.12794 0.106883 0)
(1.14095 0.469274 0)
(1.14306 0.472644 0)
(1.14534 0.475384 0)
(1.14779 0.477279 0)
(1.1504 0.478068 0)
(1.15313 0.477443 0)
(1.15596 0.475045 0)
(1.1588 0.470456 0)
(1.16156 0.463208 0)
(1.16412 0.452786 0)
(1.16628 0.438652 0)
(1.16785 0.420271 0)
(1.16855 0.397165 0)
(1.1681 0.368966 0)
(1.1662 0.335493 0)
(1.16253 0.296829 0)
(1.15685 0.253416 0)
(1.14892 0.206233 0)
(1.13734 0.157287 0)
(1.12963 0.114605 0)
)
;

boundaryField
{
    zeroGradientPlanes
    {
        type            zeroGradient;
    }
    inlet
    {
        type            fixedValue;
        value           uniform (1 0 0);
    }
    plate
    {
        type            noSlip;
    }
    frontAndBack
    {
        type            empty;
    }
}


// ************************************************************************* //
