/*--------------------------------*- C++ -*----------------------------------*\
| =========                 |                                                 |
| \\      /  F ield         | OpenFOAM: The Open Source CFD Toolbox           |
|  \\    /   O peration     | Version:  v2012                                 |
|   \\  /    A nd           | Website:  www.openfoam.com                      |
|    \\/     M anipulation  |                                                 |
\*---------------------------------------------------------------------------*/
FoamFile
{
    version     2.0;
    format      ascii;
    class       volScalarField;
    location    "0.4";
    object      p;
}
// * * * * * * * * * * * * * * * * * * * * * * * * * * * * * * * * * * * * * //

dimensions      [0 2 -2 0 0 0 0];


internalField   nonuniform List<scalar> 
800
(
1.41698e-06
0.00606937
0.0191453
0.0344985
0.0508663
0.0681423
0.0863656
0.105714
0.12653
0.149325
0.174786
0.203787
0.23741
0.276898
0.322973
0.374351
0.431714
0.517517
0.65573
0.609302
-0.0139965
-0.010631
-0.000110364
0.0126413
0.0262322
0.0403295
0.0547076
0.0692155
0.083712
0.0979588
0.111483
0.123398
0.132204
0.135618
0.130324
0.111594
0.0744795
0.018562
-0.0550914
-0.173974
-0.035379
-0.0346841
-0.0271665
-0.0174877
-0.00718709
0.00317532
0.0131208
0.0221928
0.0298629
0.0354241
0.0379044
0.0360165
0.0281733
0.0125982
-0.0124996
-0.0487243
-0.0971847
-0.158309
-0.232747
-0.321271
-0.0591258
-0.0596002
-0.0542618
-0.0471402
-0.0397366
-0.0327321
-0.0267547
-0.0224297
-0.0204527
-0.0216513
-0.0270011
-0.0375901
-0.0545268
-0.0787995
-0.111106
-0.151674
-0.200094
-0.255363
-0.316163
-0.380536
-0.0845324
-0.0853522
-0.08169
-0.0768124
-0.0720712
-0.0681864
-0.0658423
-0.0657148
-0.0685118
-0.0749935
-0.0859452
-0.102107
-0.124069
-0.152144
-0.186254
-0.225849
-0.269886
-0.316923
-0.365311
-0.413285
-0.111307
-0.112157
-0.109905
-0.10705
-0.104746
-0.103688
-0.10454
-0.107931
-0.114476
-0.124759
-0.139293
-0.158441
-0.182341
-0.210826
-0.243396
-0.279222
-0.317224
-0.356185
-0.394888
-0.432217
-0.138989
-0.139712
-0.138649
-0.137573
-0.137416
-0.1388
-0.142305
-0.148454
-0.157712
-0.170454
-0.186928
-0.207199
-0.231105
-0.258239
-0.287964
-0.319463
-0.351825
-0.38414
-0.415585
-0.445483
-0.167152
-0.167651
-0.167577
-0.168035
-0.169717
-0.173136
-0.178753
-0.186953
-0.198037
-0.212188
-0.229442
-0.249664
-0.272532
-0.297551
-0.324095
-0.351462
-0.378943
-0.405889
-0.431766
-0.456164
-0.195455
-0.195684
-0.196433
-0.198197
-0.201422
-0.206494
-0.213733
-0.223383
-0.235587
-0.250374
-0.26763
-0.287104
-0.308407
-0.33105
-0.354479
-0.378131
-0.401481
-0.424082
-0.445588
-0.465756
-0.223626
-0.223568
-0.225007
-0.227877
-0.232382
-0.238768
-0.247212
-0.257822
-0.270611
-0.285488
-0.30225
-0.320587
-0.340109
-0.360372
-0.38092
-0.401319
-0.421191
-0.440233
-0.458227
-0.47503
-0.251438
-0.251093
-0.25312
-0.256932
-0.262496
-0.269913
-0.279226
-0.290421
-0.303408
-0.318013
-0.333984
-0.351002
-0.368702
-0.386708
-0.404658
-0.42223
-0.439157
-0.45524
-0.470346
-0.484397
-0.278693
-0.278076
-0.280625
-0.285257
-0.291707
-0.299937
-0.309866
-0.321375
-0.334297
-0.348408
-0.363437
-0.379078
-0.395013
-0.410934
-0.426566
-0.441676
-0.456085
-0.469667
-0.482347
-0.49409
-0.30522
-0.304356
-0.307401
-0.312779
-0.319997
-0.328888
-0.339258
-0.350904
-0.363601
-0.3771
-0.39113
-0.405416
-0.419691
-0.433714
-0.447282
-0.460237
-0.472465
-0.483895
-0.494496
-0.504263
-0.330848
-0.329789
-0.333351
-0.339455
-0.347383
-0.356846
-0.367555
-0.379237
-0.391631
-0.404477
-0.417521
-0.430521
-0.443264
-0.45557
-0.467298
-0.478351
-0.488665
-0.498215
-0.507
-0.515038
-0.355393
-0.354225
-0.358382
-0.365251
-0.37389
-0.383903
-0.394917
-0.406607
-0.418689
-0.430904
-0.443019
-0.454832
-0.46618
-0.476938
-0.48702
-0.496378
-0.504992
-0.512869
-0.520037
-0.526531
-0.378624
-0.377489
-0.382376
-0.390103
-0.39951
-0.410107
-0.421453
-0.433188
-0.445013
-0.456677
-0.467971
-0.478732
-0.488839
-0.498216
-0.506824
-0.514658
-0.521738
-0.5281
-0.533795
-0.538878
-0.400298
-0.399477
-0.405318
-0.414053
-0.424323
-0.435565
-0.447297
-0.459135
-0.470779
-0.481992
-0.492593
-0.502453
-0.511492
-0.519672
-0.526992
-0.533482
-0.539191
-0.544183
-0.548528
-0.552301
-0.42031
-0.420513
-0.427765
-0.437792
-0.449105
-0.461113
-0.473313
-0.485317
-0.496832
-0.507641
-0.517594
-0.5266
-0.534622
-0.541666
-0.547771
-0.553
-0.557431
-0.561145
-0.564228
-0.566763
-0.438156
-0.440579
-0.449898
-0.461637
-0.474325
-0.487406
-0.500393
-0.512894
-0.524615
-0.535342
-0.544936
-0.553323
-0.560493
-0.566484
-0.571373
-0.575267
-0.578289
-0.580572
-0.582252
-0.583467
-0.449674
-0.454053
-0.464841
-0.477827
-0.491582
-0.505617
-0.519492
-0.532819
-0.545296
-0.556694
-0.566856
-0.575692
-0.583176
-0.589331
-0.594217
-0.597925
-0.600559
-0.60224
-0.603089
-0.603153
-0.353269
-0.878782
-1.09307
-1.19112
-1.22617
-1.21673
-1.18246
-1.13894
-1.09502
-1.05465
-1.01905
-0.988096
-0.961171
-0.937619
-0.916948
-0.898902
-0.8835
-0.871168
-0.862921
-0.858198
-0.384016
-0.567853
-0.709022
-0.818852
-0.899465
-0.95129
-0.978817
-0.98837
-0.985803
-0.975788
-0.961731
-0.945909
-0.929724
-0.913998
-0.899237
-0.885824
-0.874155
-0.864829
-0.859014
-0.855446
-0.421389
-0.527209
-0.627394
-0.714325
-0.785079
-0.838802
-0.876395
-0.900058
-0.912546
-0.916623
-0.914757
-0.908974
-0.900834
-0.891494
-0.881819
-0.872503
-0.86417
-0.857553
-0.854112
-0.852129
-0.447227
-0.516966
-0.587188
-0.65352
-0.712825
-0.762978
-0.802945
-0.832796
-0.853437
-0.866251
-0.872794
-0.874583
-0.872976
-0.869126
-0.864001
-0.858434
-0.853185
-0.84909
-0.847934
-0.847794
-0.460861
-0.51036
-0.561942
-0.613401
-0.662475
-0.707146
-0.745897
-0.777868
-0.802867
-0.821258
-0.833793
-0.841435
-0.845213
-0.846128
-0.845114
-0.843038
-0.840718
-0.83905
-0.840102
-0.841909
-0.468664
-0.506562
-0.546647
-0.587757
-0.628468
-0.667308
-0.702933
-0.73429
-0.760724
-0.782007
-0.798303
-0.810074
-0.81798
-0.822786
-0.825293
-0.826316
-0.826669
-0.827255
-0.830351
-0.834024
-0.474471
-0.504619
-0.536773
-0.570307
-0.604351
-0.637891
-0.669876
-0.699335
-0.72549
-0.74784
-0.766184
-0.780618
-0.791478
-0.799275
-0.804638
-0.808279
-0.810957
-0.81354
-0.818433
-0.823716
-0.479739
-0.504273
-0.530581
-0.558318
-0.586951
-0.615801
-0.644093
-0.671028
-0.695869
-0.718027
-0.737119
-0.752998
-0.76575
-0.775664
-0.78319
-0.788908
-0.793495
-0.797746
-0.804122
-0.810618
-0.485202
-0.50545
-0.527236
-0.550368
-0.574519
-0.599236
-0.623966
-0.648089
-0.670977
-0.69206
-0.71089
-0.72719
-0.740877
-0.752063
-0.761036
-0.768244
-0.774261
-0.779783
-0.78727
-0.79447
-0.491202
-0.508041
-0.526192
-0.54555
-0.565911
-0.586974
-0.608349
-0.629569
-0.650128
-0.669528
-0.687328
-0.703204
-0.716975
-0.728633
-0.738335
-0.746409
-0.753322
-0.759659
-0.767832
-0.775149
-0.497891
-0.51193
-0.527072
-0.543256
-0.560352
-0.578159
-0.596401
-0.614733
-0.63276
-0.650069
-0.666269
-0.681039
-0.694161
-0.705555
-0.71529
-0.723594
-0.730836
-0.737484
-0.745882
-0.752683
-0.505338
-0.517019
-0.529603
-0.543057
-0.557292
-0.57217
-0.587492
-0.603003
-0.618401
-0.633356
-0.647542
-0.66067
-0.672527
-0.683005
-0.69212
-0.700033
-0.707026
-0.713459
-0.721603
-0.727244
-0.513582
-0.523228
-0.533592
-0.544649
-0.556334
-0.568545
-0.581135
-0.593914
-0.60665
-0.619087
-0.630962
-0.642037
-0.652126
-0.661127
-0.669035
-0.675972
-0.682157
-0.68785
-0.695262
-0.699128
-0.522663
-0.530515
-0.538908
-0.547816
-0.557187
-0.566938
-0.576955
-0.58709
-0.597165
-0.606981
-0.616336
-0.625046
-0.632966
-0.640017
-0.646207
-0.651639
-0.656497
-0.660953
-0.667182
-0.668713
-0.532637
-0.538872
-0.545476
-0.55242
-0.559651
-0.567098
-0.574663
-0.582227
-0.58965
-0.596779
-0.603461
-0.609565
-0.614994
-0.61971
-0.623746
-0.627218
-0.630289
-0.633069
-0.637714
-0.636452
-0.543591
-0.548335
-0.553281
-0.558387
-0.563599
-0.568845
-0.574037
-0.579073
-0.583841
-0.588223
-0.592112
-0.595424
-0.598113
-0.600189
-0.601728
-0.602873
-0.603788
-0.604542
-0.607282
-0.602905
-0.555701
-0.559023
-0.562372
-0.565698
-0.568939
-0.572025
-0.574875
-0.577399
-0.579506
-0.581106
-0.582126
-0.582523
-0.582299
-0.581514
-0.580292
-0.578818
-0.577272
-0.575705
-0.576271
-0.568576
-0.568915
-0.570877
-0.572692
-0.574304
-0.57565
-0.576655
-0.577236
-0.577303
-0.576766
-0.57555
-0.573602
-0.570911
-0.567524
-0.563559
-0.559205
-0.55471
-0.550293
-0.546024
-0.544058
-0.53283
-0.584382
-0.585066
-0.585436
-0.585382
-0.584803
-0.5836
-0.581678
-0.578948
-0.575336
-0.570791
-0.565301
-0.558912
-0.551743
-0.544003
-0.535987
-0.528048
-0.520485
-0.513432
-0.508719
-0.493725
-0.60233
-0.600643
-0.598278
-0.595281
-0.591593
-0.587147
-0.581886
-0.575755
-0.568712
-0.560741
-0.551872
-0.542206
-0.531933
-0.521349
-0.510851
-0.50089
-0.491849
-0.48397
-0.477787
-0.459621
)
;

boundaryField
{
    zeroGradientPlanes
    {
        type            zeroGradient;
    }
    inlet
    {
        type            zeroGradient;
    }
    plate
    {
        type            zeroGradient;
    }
    frontAndBack
    {
        type            empty;
    }
}


// ************************************************************************* //
