/*--------------------------------*- C++ -*----------------------------------*\
| =========                 |                                                 |
| \\      /  F ield         | OpenFOAM: The Open Source CFD Toolbox           |
|  \\    /   O peration     | Version:  v2012                                 |
|   \\  /    A nd           | Website:  www.openfoam.com                      |
|    \\/     M anipulation  |                                                 |
\*---------------------------------------------------------------------------*/
FoamFile
{
    version     2.0;
    format      ascii;
    class       surfaceScalarField;
    location    "0.4";
    object      phi;
}
// * * * * * * * * * * * * * * * * * * * * * * * * * * * * * * * * * * * * * //

dimensions      [0 3 -1 0 0 0 0];
oriented        oriented;


internalField   nonuniform List<scalar> 
1540
(
4.96846e-05
1.76132e-06
4.91957e-05
5.44199e-06
4.866e-05
8.73956e-06
4.8113e-05
1.16122e-05
4.75707e-05
1.40831e-05
4.70399e-05
1.62015e-05
4.65228e-05
1.80166e-05
4.60192e-05
1.9567e-05
4.55269e-05
2.08745e-05
4.50424e-05
2.19426e-05
4.45599e-05
2.27566e-05
4.40719e-05
2.32854e-05
4.35679e-05
2.34852e-05
4.30332e-05
2.33041e-05
4.24486e-05
2.26882e-05
4.1788e-05
2.15894e-05
4.10078e-05
1.99797e-05
4.00217e-05
1.7861e-05
3.8711e-05
1.52272e-05
1.19957e-05
3.7078e-05
4.97203e-05
2.04101e-06
4.92646e-05
5.89765e-06
4.87543e-05
9.24988e-06
4.82359e-05
1.21305e-05
4.77288e-05
1.45903e-05
4.72428e-05
1.66875e-05
4.67847e-05
1.84748e-05
4.63607e-05
1.99909e-05
4.59785e-05
2.12567e-05
4.56478e-05
2.22734e-05
4.53811e-05
2.30233e-05
4.51935e-05
2.3473e-05
4.51001e-05
2.35785e-05
4.51106e-05
2.32937e-05
4.52192e-05
2.25796e-05
4.53921e-05
2.14164e-05
4.55568e-05
1.9815e-05
4.55977e-05
1.782e-05
4.53271e-05
1.54978e-05
1.29552e-05
4.43676e-05
4.97744e-05
2.26664e-06
4.93714e-05
6.30064e-06
4.89131e-05
9.70813e-06
4.84508e-05
1.25929e-05
4.80091e-05
1.5032e-05
4.76035e-05
1.70931e-05
4.72473e-05
1.8831e-05
4.69548e-05
2.02834e-05
4.67429e-05
2.14686e-05
4.66312e-05
2.23851e-05
4.66403e-05
2.30142e-05
4.6789e-05
2.33243e-05
4.7088e-05
2.32796e-05
4.75321e-05
2.28495e-05
4.80924e-05
2.20194e-05
4.87089e-05
2.07999e-05
4.92903e-05
1.92336e-05
4.97166e-05
1.73938e-05
4.98366e-05
1.53778e-05
1.33046e-05
4.94872e-05
4.98267e-05
2.43996e-06
4.94919e-05
6.63541e-06
4.91053e-05
1.00947e-05
4.87202e-05
1.2978e-05
4.83663e-05
1.53859e-05
4.80642e-05
1.73951e-05
4.7833e-05
1.90622e-05
4.76926e-05
2.04238e-05
4.76643e-05
2.14968e-05
4.77697e-05
2.22797e-05
4.80272e-05
2.27567e-05
4.8447e-05
2.29045e-05
4.9025e-05
2.27016e-05
4.97371e-05
2.21374e-05
5.05355e-05
2.12209e-05
5.13492e-05
1.99863e-05
5.209e-05
1.84927e-05
5.2664e-05
1.68198e-05
5.29835e-05
1.50583e-05
1.32998e-05
5.29882e-05
4.98731e-05
2.56688e-06
4.96131e-05
6.89536e-06
4.93108e-05
1.03971e-05
4.90175e-05
1.32713e-05
4.87653e-05
1.56381e-05
4.85787e-05
1.75817e-05
4.84798e-05
1.9161e-05
4.84907e-05
2.04129e-05
4.86325e-05
2.1355e-05
4.89231e-05
2.19892e-05
4.93728e-05
2.2307e-05
4.998e-05
2.22974e-05
5.07262e-05
2.19554e-05
5.15744e-05
2.12892e-05
5.24693e-05
2.0326e-05
5.33432e-05
1.91124e-05
5.41242e-05
1.77116e-05
5.4748e-05
1.61961e-05
5.5167e-05
1.46392e-05
1.31071e-05
5.53597e-05
4.99137e-05
2.65318e-06
4.97291e-05
7.07991e-06
4.95167e-05
1.06095e-05
4.93223e-05
1.34657e-05
4.91778e-05
1.57826e-05
4.91086e-05
1.76509e-05
4.91374e-05
1.91322e-05
4.92853e-05
2.02651e-05
4.95697e-05
2.10706e-05
5.00019e-05
2.1557e-05
5.0583e-05
2.17258e-05
5.1301e-05
2.15794e-05
5.21284e-05
2.1128e-05
5.30233e-05
2.03944e-05
5.39329e-05
1.94163e-05
5.48007e-05
1.82447e-05
5.55734e-05
1.69389e-05
5.62092e-05
1.55603e-05
5.6682e-05
1.41664e-05
1.28049e-05
5.69843e-05
4.9949e-05
2.70419e-06
4.98368e-05
7.19208e-06
4.97144e-05
1.0732e-05
4.96197e-05
1.35604e-05
4.95817e-05
1.58206e-05
4.96244e-05
1.76083e-05
4.97687e-05
1.89879e-05
5.00322e-05
2.00016e-05
5.04272e-05
2.06756e-05
5.09581e-05
2.10261e-05
5.16185e-05
2.10655e-05
5.23893e-05
2.08085e-05
5.32398e-05
2.02775e-05
5.41293e-05
1.95048e-05
5.50125e-05
1.85332e-05
5.58448e-05
1.74124e-05
5.65882e-05
1.61954e-05
5.72156e-05
1.49329e-05
5.77124e-05
1.36696e-05
1.24411e-05
5.80761e-05
4.99794e-05
2.72474e-06
4.99346e-05
7.23688e-06
4.98985e-05
1.07681e-05
4.98997e-05
1.35592e-05
4.99621e-05
1.57582e-05
5.01063e-05
1.74641e-05
5.03497e-05
1.87444e-05
5.07056e-05
1.96456e-05
5.1181e-05
2.02002e-05
5.17742e-05
2.04329e-05
5.24736e-05
2.0366e-05
5.32575e-05
2.00246e-05
5.40954e-05
1.94397e-05
5.49511e-05
1.86491e-05
5.57878e-05
1.76966e-05
5.65715e-05
1.66287e-05
5.72754e-05
1.54915e-05
5.78817e-05
1.43267e-05
5.83818e-05
1.31694e-05
1.20472e-05
5.87757e-05
5.00057e-05
2.71901e-06
5.00224e-05
7.2202e-06
5.00665e-05
1.0724e-05
5.01565e-05
1.34692e-05
5.031e-05
1.56047e-05
5.05428e-05
1.72313e-05
5.0868e-05
1.84192e-05
5.12942e-05
1.92195e-05
5.18235e-05
1.96709e-05
5.24503e-05
1.98061e-05
5.31602e-05
1.96561e-05
5.39312e-05
1.92536e-05
5.47355e-05
1.86354e-05
5.55428e-05
1.78418e-05
5.63238e-05
1.69155e-05
5.70534e-05
1.58992e-05
5.77125e-05
1.48324e-05
5.82893e-05
1.37499e-05
5.87787e-05
1.268e-05
1.16444e-05
5.91815e-05
5.00286e-05
2.69044e-06
5.01008e-05
7.14799e-06
5.0218e-05
1.06068e-05
5.03882e-05
1.3299e-05
5.06219e-05
1.5371e-05
5.09296e-05
1.69236e-05
5.13196e-05
1.80292e-05
5.17963e-05
1.87428e-05
5.23582e-05
1.9109e-05
5.29969e-05
1.91674e-05
5.36974e-05
1.89555e-05
5.44393e-05
1.85118e-05
5.51984e-05
1.78762e-05
5.59503e-05
1.70899e-05
5.66723e-05
1.61935e-05
5.73457e-05
1.52257e-05
5.79572e-05
1.42209e-05
5.84988e-05
1.32083e-05
5.89677e-05
1.22112e-05
1.12472e-05
5.93649e-05
5.00488e-05
2.64165e-06
5.01711e-05
7.02569e-06
5.03541e-05
1.04238e-05
5.05953e-05
1.30577e-05
5.0898e-05
1.50684e-05
5.12671e-05
1.65546e-05
5.17065e-05
1.75897e-05
5.2217e-05
1.82323e-05
5.27945e-05
1.85316e-05
5.34294e-05
1.85325e-05
5.41074e-05
1.82776e-05
5.48103e-05
1.78089e-05
5.55182e-05
1.71682e-05
5.62118e-05
1.63963e-05
5.6874e-05
1.55314e-05
5.7491e-05
1.46087e-05
5.80534e-05
1.36584e-05
5.85562e-05
1.27055e-05
5.89975e-05
1.17698e-05
1.08659e-05
5.93789e-05
5.00673e-05
2.57434e-06
5.02352e-05
6.85776e-06
5.04771e-05
1.01819e-05
5.07805e-05
1.27543e-05
5.11414e-05
1.47075e-05
5.15595e-05
1.61365e-05
5.20348e-05
1.71144e-05
5.25653e-05
1.77017e-05
5.31453e-05
1.79516e-05
5.37652e-05
1.79126e-05
5.44119e-05
1.76309e-05
5.50702e-05
1.71506e-05
5.57241e-05
1.65143e-05
5.63589e-05
1.57615e-05
5.69616e-05
1.49287e-05
5.75227e-05
1.40477e-05
5.80355e-05
1.31456e-05
5.84968e-05
1.22442e-05
5.89059e-05
1.13607e-05
1.05076e-05
5.92642e-05
5.00852e-05
2.48917e-06
5.02955e-05
6.64745e-06
5.05904e-05
9.88698e-06
5.09477e-05
1.2397e-05
5.13568e-05
1.42984e-05
5.18129e-05
1.56804e-05
5.23127e-05
1.66145e-05
5.28522e-05
1.71623e-05
5.34249e-05
1.73789e-05
5.40217e-05
1.73158e-05
5.46316e-05
1.7021e-05
5.52422e-05
1.654e-05
5.58412e-05
1.59153e-05
5.64175e-05
1.51852e-05
5.6962e-05
1.43842e-05
5.74678e-05
1.35418e-05
5.79308e-05
1.26825e-05
5.83491e-05
1.18259e-05
5.87226e-05
1.09872e-05
1.01773e-05
5.90529e-05
5.01036e-05
2.38555e-06
5.03544e-05
6.39669e-06
5.06973e-05
9.54402e-06
5.11012e-05
1.19931e-05
5.15498e-05
1.38499e-05
5.20343e-05
1.51959e-05
5.25492e-05
1.60997e-05
5.30889e-05
1.66225e-05
5.3647e-05
1.68208e-05
5.42155e-05
1.67473e-05
5.47852e-05
1.64513e-05
5.53466e-05
1.59786e-05
5.58907e-05
1.53711e-05
5.64097e-05
1.46663e-05
5.68971e-05
1.38968e-05
5.73488e-05
1.30902e-05
5.77622e-05
1.22691e-05
5.81364e-05
1.14517e-05
5.84721e-05
1.06515e-05
9.87862e-06
5.87709e-05
5.0124e-05
2.26155e-06
5.04144e-05
6.10627e-06
5.08012e-05
9.15725e-06
5.12451e-05
1.15492e-05
5.17252e-05
1.33697e-05
5.22302e-05
1.46909e-05
5.27525e-05
1.55774e-05
5.3286e-05
1.6089e-05
5.38244e-05
1.62824e-05
5.43611e-05
1.62106e-05
5.48889e-05
1.59235e-05
5.5401e-05
1.54665e-05
5.58911e-05
1.4881e-05
5.63541e-05
1.42033e-05
5.67861e-05
1.34648e-05
5.71847e-05
1.26915e-05
5.75489e-05
1.19049e-05
5.78788e-05
1.11218e-05
5.81753e-05
1.0355e-05
9.61376e-06
5.84401e-05
5.01478e-05
2.11379e-06
5.04777e-05
5.7763e-06
5.09043e-05
8.73071e-06
5.13819e-05
1.10716e-05
5.18867e-05
1.2865e-05
5.24052e-05
1.41724e-05
5.29291e-05
1.50535e-05
5.34517e-05
1.55663e-05
5.39675e-05
1.57666e-05
5.44708e-05
1.57073e-05
5.49567e-05
1.54376e-05
5.54205e-05
1.50028e-05
5.58583e-05
1.44432e-05
5.62673e-05
1.37943e-05
5.66458e-05
1.30863e-05
5.69929e-05
1.23444e-05
5.73089e-05
1.1589e-05
5.75945e-05
1.08362e-05
5.78513e-05
1.00982e-05
9.384e-06
5.80811e-05
5.01764e-05
1.93743e-06
5.05454e-05
5.4073e-06
5.10069e-05
8.26921e-06
5.15118e-05
1.05667e-05
5.20346e-05
1.23421e-05
5.25612e-05
1.36458e-05
5.30824e-05
1.45323e-05
5.35916e-05
1.50572e-05
5.40836e-05
1.52747e-05
5.45541e-05
1.52368e-05
5.49997e-05
1.4992e-05
5.54176e-05
1.45848e-05
5.58062e-05
1.40546e-05
5.61645e-05
1.3436e-05
5.64924e-05
1.27584e-05
5.67905e-05
1.20463e-05
5.70601e-05
1.13195e-05
5.73027e-05
1.05936e-05
5.75202e-05
9.88062e-06
9.18951e-06
5.77147e-05
5.0211e-05
1.72643e-06
5.0616e-05
5.00226e-06
5.11059e-05
7.77938e-06
5.1631e-05
1.00416e-05
5.2166e-05
1.1807e-05
5.26963e-05
1.31155e-05
5.32124e-05
1.40163e-05
5.37074e-05
1.45621e-05
5.41767e-05
1.48053e-05
5.4617e-05
1.47965e-05
5.5026e-05
1.4583e-05
5.54027e-05
1.4208e-05
5.57471e-05
1.37103e-05
5.60596e-05
1.31235e-05
5.63416e-05
1.24764e-05
5.6595e-05
1.17929e-05
5.68218e-05
1.10927e-05
5.70243e-05
1.03911e-05
5.72049e-05
9.70003e-06
9.02854e-06
5.73659e-05
5.02488e-05
1.47764e-06
5.06817e-05
4.56932e-06
5.11913e-05
7.26976e-06
5.17297e-05
9.50327e-06
5.22722e-05
1.12645e-05
5.28041e-05
1.25836e-05
5.33152e-05
1.35052e-05
5.37987e-05
1.40787e-05
5.42498e-05
1.43542e-05
5.46658e-05
1.43805e-05
5.50454e-05
1.42034e-05
5.53886e-05
1.38648e-05
5.56965e-05
1.34024e-05
5.59709e-05
1.28491e-05
5.62142e-05
1.2233e-05
5.64294e-05
1.15778e-05
5.66194e-05
1.09027e-05
5.67871e-05
1.02233e-05
5.69356e-05
9.5516e-06
8.89681e-06
5.70673e-05
5.02726e-05
5.07251e-05
5.12437e-05
5.17884e-05
5.23353e-05
5.28688e-05
5.33782e-05
5.38563e-05
5.42984e-05
5.47018e-05
5.50654e-05
5.53898e-05
5.56766e-05
5.59281e-05
5.61472e-05
5.6337e-05
5.65009e-05
5.66421e-05
5.67636e-05
5.68686e-05
2.82837e-05
8.79434e-06
2.14604e-05
6.82331e-06
1.63146e-05
5.14573e-06
1.25434e-05
3.77121e-06
9.85104e-06
2.69238e-06
7.95996e-06
1.89108e-06
6.63309e-06
1.32687e-06
5.6867e-06
9.46397e-07
4.98981e-06
6.96882e-07
4.45561e-06
5.34207e-07
4.02997e-06
4.25638e-07
3.68082e-06
3.49153e-07
3.38976e-06
2.91058e-07
3.14655e-06
2.43207e-07
2.94588e-06
2.00673e-07
2.78564e-06
1.60237e-07
2.66581e-06
1.19833e-07
2.58598e-06
7.98305e-08
2.53775e-06
4.82266e-08
2.52881e-08
4.18496e-05
1.13124e-05
3.83533e-05
1.03196e-05
3.4418e-05
9.08102e-06
3.04347e-05
7.75459e-06
2.66722e-05
6.45486e-06
2.32951e-05
5.26811e-06
2.03753e-05
4.24667e-06
1.79138e-05
3.40796e-06
1.58679e-05
2.74278e-06
1.41758e-05
2.22625e-06
1.2774e-05
1.82745e-06
1.1607e-05
1.5162e-06
1.06313e-05
1.26674e-06
9.81588e-06
1.05862e-06
9.14048e-06
8.76072e-07
8.59369e-06
7.07033e-07
8.17029e-06
5.43227e-07
7.86615e-06
3.83978e-07
7.66501e-06
2.4936e-07
1.64925e-07
4.85277e-05
1.22719e-05
4.68263e-05
1.20209e-05
4.44495e-05
1.14578e-05
4.15633e-05
1.06408e-05
3.83709e-05
9.64723e-06
3.50756e-05
8.5634e-06
3.18512e-05
7.47111e-06
2.88238e-05
6.43532e-06
2.60686e-05
5.49805e-06
2.36164e-05
4.67846e-06
2.14668e-05
3.97706e-06
1.96012e-05
3.38171e-06
1.79945e-05
2.87352e-06
1.66219e-05
2.43118e-06
1.54643e-05
2.03366e-06
1.45095e-05
1.66181e-06
1.37518e-05
1.30099e-06
1.3187e-05
9.48805e-07
1.27986e-05
6.37686e-07
4.3688e-07
5.26336e-05
1.26266e-05
5.18146e-05
1.284e-05
5.04704e-05
1.28019e-05
4.86068e-05
1.25045e-05
4.62886e-05
1.19654e-05
4.36262e-05
1.12258e-05
4.07541e-05
1.03432e-05
3.78087e-05
9.3808e-06
3.49089e-05
8.39781e-06
3.21461e-05
7.44123e-06
2.95812e-05
6.54201e-06
2.72481e-05
5.71474e-06
2.51617e-05
4.95999e-06
2.3325e-05
4.26789e-06
2.17369e-05
3.62176e-06
2.03969e-05
3.00181e-06
1.93074e-05
2.39046e-06
1.84715e-05
1.78471e-06
1.78794e-05
1.22977e-06
8.52206e-07
5.53223e-05
1.26641e-05
5.49927e-05
1.31695e-05
5.42951e-05
1.34995e-05
5.31796e-05
1.362e-05
5.16327e-05
1.35123e-05
4.96819e-05
1.31766e-05
4.73922e-05
1.26329e-05
4.48555e-05
1.19175e-05
4.21761e-05
1.10772e-05
3.94567e-05
1.01606e-05
3.67876e-05
9.21115e-06
3.42404e-05
8.26191e-06
3.1868e-05
7.33244e-06
2.97071e-05
6.42877e-06
2.77838e-05
5.54507e-06
2.61186e-05
4.66704e-06
2.47303e-05
3.77871e-06
2.36363e-05
2.87874e-06
2.28403e-05
2.02574e-06
1.41342e-06
5.71308e-05
1.25176e-05
5.70905e-05
1.32099e-05
5.67983e-05
1.37916e-05
5.61951e-05
1.42233e-05
5.52368e-05
1.44705e-05
5.39043e-05
1.45091e-05
5.22082e-05
1.4329e-05
5.0189e-05
1.39367e-05
4.79128e-05
1.33534e-05
4.54617e-05
1.26117e-05
4.29238e-05
1.17491e-05
4.03839e-05
1.08018e-05
3.79176e-05
9.79875e-06
3.55885e-05
8.75783e-06
3.34494e-05
7.68423e-06
3.15447e-05
6.57169e-06
2.99146e-05
5.40878e-06
2.85956e-05
4.19774e-06
2.76105e-05
3.01089e-06
2.11493e-06
5.83311e-05
1.22626e-05
5.84672e-05
1.30738e-05
5.84335e-05
1.38253e-05
5.81762e-05
1.44806e-05
5.7645e-05
1.50018e-05
5.68003e-05
1.53537e-05
5.56211e-05
1.55083e-05
5.41093e-05
1.54485e-05
5.22921e-05
1.51705e-05
5.02199e-05
1.46839e-05
4.79602e-05
1.40088e-05
4.55907e-05
1.31713e-05
4.31916e-05
1.21978e-05
4.08405e-05
1.11089e-05
3.8609e-05
9.91571e-06
3.65629e-05
8.61784e-06
3.47632e-05
7.20843e-06
3.32675e-05
5.69342e-06
3.21203e-05
4.15812e-06
2.94391e-06
5.90923e-05
1.1946e-05
5.93353e-05
1.28308e-05
5.94659e-05
1.36947e-05
5.94398e-05
1.45067e-05
5.92101e-05
1.52315e-05
5.87323e-05
1.58316e-05
5.79702e-05
1.62704e-05
5.69025e-05
1.65162e-05
5.5527e-05
1.6546e-05
5.38637e-05
1.63472e-05
5.19536e-05
1.59189e-05
4.98555e-05
1.52694e-05
4.76408e-05
1.44125e-05
4.53875e-05
1.33622e-05
4.31759e-05
1.21273e-05
4.10855e-05
1.07083e-05
3.91945e-05
9.09943e-06
3.75794e-05
7.30849e-06
3.63062e-05
5.43135e-06
3.88159e-06
5.95289e-05
1.15986e-05
5.98332e-05
1.25266e-05
6.00655e-05
1.34624e-05
6.01907e-05
1.43815e-05
6.01688e-05
1.52534e-05
5.99575e-05
1.60429e-05
5.95165e-05
1.67113e-05
5.88128e-05
1.722e-05
5.78257e-05
1.75331e-05
5.65518e-05
1.76212e-05
5.50073e-05
1.74634e-05
5.32289e-05
1.70479e-05
5.12709e-05
1.63705e-05
4.92023e-05
1.54309e-05
4.71015e-05
1.42281e-05
4.50535e-05
1.27563e-05
4.3147e-05
1.1006e-05
4.14727e-05
8.98277e-06
4.01148e-05
6.78924e-06
4.90499e-06
5.97219e-05
1.12415e-05
6.00567e-05
1.21918e-05
6.03477e-05
1.31714e-05
6.05678e-05
1.41613e-05
6.06844e-05
1.51368e-05
6.06605e-05
1.60667e-05
6.04576e-05
1.69143e-05
6.00386e-05
1.76389e-05
5.93735e-05
1.81982e-05
5.84432e-05
1.85514e-05
5.7245e-05
1.86616e-05
5.57945e-05
1.84984e-05
5.4127e-05
1.80379e-05
5.22965e-05
1.72614e-05
5.03724e-05
1.61521e-05
4.8437e-05
1.46918e-05
4.65819e-05
1.28611e-05
4.4906e-05
1.06587e-05
4.35062e-05
8.18901e-06
5.98863e-06
5.9731e-05
1.08893e-05
6.00747e-05
1.18481e-05
6.03942e-05
1.28518e-05
6.0669e-05
1.38866e-05
6.0873e-05
1.49328e-05
6.09757e-05
1.59641e-05
6.09424e-05
1.69476e-05
6.07374e-05
1.78438e-05
6.03271e-05
1.86085e-05
5.96843e-05
1.91942e-05
5.87927e-05
1.95532e-05
5.76517e-05
1.96394e-05
5.62787e-05
1.94109e-05
5.47109e-05
1.88292e-05
5.30044e-05
1.78587e-05
5.12324e-05
1.64637e-05
4.94831e-05
1.46104e-05
4.78565e-05
1.22853e-05
4.64559e-05
9.58965e-06
7.10643e-06
5.96012e-05
1.05524e-05
5.99387e-05
1.15106e-05
6.02653e-05
1.25252e-05
6.05656e-05
1.35863e-05
6.08194e-05
1.46789e-05
6.10019e-05
1.57816e-05
6.10838e-05
1.68656e-05
6.1033e-05
1.78947e-05
6.08162e-05
1.88253e-05
6.0403e-05
1.96074e-05
5.97699e-05
2.01863e-05
5.89043e-05
2.0505e-05
5.78093e-05
2.05059e-05
5.65062e-05
2.01324e-05
5.5036e-05
1.93288e-05
5.34596e-05
1.80401e-05
5.18561e-05
1.62139e-05
5.03204e-05
1.38211e-05
4.89554e-05
1.09546e-05
8.23323e-06
5.93674e-05
1.02379e-05
5.96879e-05
1.11901e-05
6.00063e-05
1.22068e-05
6.0311e-05
1.32816e-05
6.05867e-05
1.44032e-05
6.08138e-05
1.55545e-05
6.09683e-05
1.67111e-05
6.10224e-05
1.78406e-05
6.09461e-05
1.89017e-05
6.07091e-05
1.98444e-05
6.02846e-05
2.06108e-05
5.96532e-05
2.11364e-05
5.88072e-05
2.13518e-05
5.77548e-05
2.11848e-05
5.65225e-05
2.05611e-05
5.51571e-05
1.94056e-05
5.3725e-05
1.7646e-05
5.23112e-05
1.52348e-05
5.10123e-05
1.22535e-05
9.34628e-06
5.90577e-05
9.951e-06
5.93536e-05
1.08942e-05
5.96527e-05
1.19078e-05
5.99466e-05
1.29878e-05
6.02237e-05
1.41262e-05
6.04688e-05
1.53094e-05
6.06629e-05
1.6517e-05
6.07831e-05
1.77205e-05
6.08031e-05
1.88816e-05
6.06953e-05
1.99522e-05
6.04328e-05
2.08733e-05
5.9993e-05
2.15763e-05
5.93612e-05
2.19835e-05
5.85357e-05
2.20104e-05
5.75303e-05
2.15665e-05
5.63777e-05
2.05582e-05
5.513e-05
1.88936e-05
5.38586e-05
1.65063e-05
5.26487e-05
1.34634e-05
1.04263e-05
5.86959e-05
9.69523e-06
5.89618e-05
1.06283e-05
5.92339e-05
1.16357e-05
5.9506e-05
1.27157e-05
5.97696e-05
1.38625e-05
6.00133e-05
1.50656e-05
6.02223e-05
1.6308e-05
6.03782e-05
1.75645e-05
6.04594e-05
1.88004e-05
6.04417e-05
1.99699e-05
6.03002e-05
2.10148e-05
6.00117e-05
2.18647e-05
5.95583e-05
2.2437e-05
5.89309e-05
2.26377e-05
5.81333e-05
2.2364e-05
5.71853e-05
2.15063e-05
5.61241e-05
1.99548e-05
5.50052e-05
1.76252e-05
5.38994e-05
1.45692e-05
1.14583e-05
5.83036e-05
9.47267e-06
5.85362e-05
1.03957e-05
5.87761e-05
1.13959e-05
5.9019e-05
1.24728e-05
5.9259e-05
1.36226e-05
5.94875e-05
1.48371e-05
5.96935e-05
1.6102e-05
5.98629e-05
1.73952e-05
5.99782e-05
1.86851e-05
6.00195e-05
1.99286e-05
5.99649e-05
2.10694e-05
5.97927e-05
2.2037e-05
5.94836e-05
2.27461e-05
5.90244e-05
2.3097e-05
5.8411e-05
2.29774e-05
5.76519e-05
2.22653e-05
5.67702e-05
2.08365e-05
5.58044e-05
1.85909e-05
5.48095e-05
1.55641e-05
1.24325e-05
5.79033e-05
9.28406e-06
5.8101e-05
1.01979e-05
5.83061e-05
1.11908e-05
5.85158e-05
1.22631e-05
5.8726e-05
1.34124e-05
5.89308e-05
1.46323e-05
5.91223e-05
1.59105e-05
5.92899e-05
1.72276e-05
5.94202e-05
1.85547e-05
5.94973e-05
1.98515e-05
5.95028e-05
2.10639e-05
5.94173e-05
2.21224e-05
5.92223e-05
2.29411e-05
5.8902e-05
2.34172e-05
5.84468e-05
2.34326e-05
5.78556e-05
2.28565e-05
5.71383e-05
2.15538e-05
5.63171e-05
1.94122e-05
5.54309e-05
1.64502e-05
1.33447e-05
5.75218e-05
9.1281e-06
5.76855e-05
1.00342e-05
5.78561e-05
1.10202e-05
5.80321e-05
1.20872e-05
5.82107e-05
1.32338e-05
5.83883e-05
1.44547e-05
5.85594e-05
1.57394e-05
5.87165e-05
1.70706e-05
5.88496e-05
1.84216e-05
5.89464e-05
1.97547e-05
5.8992e-05
2.10183e-05
5.89698e-05
2.21447e-05
5.88623e-05
2.30486e-05
5.86531e-05
2.36265e-05
5.83283e-05
2.37573e-05
5.78792e-05
2.33056e-05
5.73037e-05
2.21294e-05
5.66083e-05
2.01076e-05
5.5819e-05
1.72395e-05
1.41963e-05
5.71945e-05
9.00087e-06
5.7328e-05
9.90075e-06
5.74676e-05
1.08806e-05
5.76129e-05
1.19419e-05
5.77627e-05
1.30839e-05
5.79148e-05
1.43025e-05
5.80659e-05
1.55883e-05
5.82107e-05
1.69258e-05
5.83418e-05
1.82905e-05
5.84497e-05
1.96469e-05
5.85222e-05
2.09457e-05
5.85451e-05
2.21218e-05
5.85023e-05
2.30915e-05
5.83766e-05
2.37521e-05
5.81516e-05
2.39823e-05
5.78124e-05
2.36448e-05
5.73469e-05
2.25949e-05
5.67466e-05
2.07079e-05
5.60297e-05
1.79564e-05
1.49951e-05
5.69701e-05
5.70796e-05
5.71975e-05
5.73236e-05
5.74569e-05
5.75958e-05
5.77374e-05
5.78774e-05
5.80097e-05
5.81263e-05
5.82166e-05
5.82677e-05
5.82641e-05
5.81888e-05
5.80235e-05
5.77495e-05
5.73487e-05
5.68073e-05
5.60924e-05
)
;

boundaryField
{
    zeroGradientPlanes
    {
        type            calculated;
        value           nonuniform List<scalar> 
80
(
-1.44597e-06
-4.95302e-06
-8.20389e-06
-1.10652e-05
-1.35408e-05
-1.56706e-05
-1.74996e-05
-1.90634e-05
-2.03822e-05
-2.1458e-05
-2.22742e-05
-2.27975e-05
-2.29811e-05
-2.27695e-05
-2.21036e-05
-2.09287e-05
-1.91995e-05
-1.68749e-05
-1.39165e-05
-1.03628e-05
2.51246e-06
7.52538e-06
1.25267e-05
1.74641e-05
2.22791e-05
2.6909e-05
3.12913e-05
3.53685e-05
3.90914e-05
4.24225e-05
4.53381e-05
4.78286e-05
4.98993e-05
5.15687e-05
5.28674e-05
5.38353e-05
5.45188e-05
5.49675e-05
5.52308e-05
5.51301e-05
1.20505e-06
4.11684e-06
6.75115e-06
8.95853e-06
1.07176e-05
1.20501e-05
1.29957e-05
1.36005e-05
1.39121e-05
1.39772e-05
1.38397e-05
1.35404e-05
1.31157e-05
1.25976e-05
1.20139e-05
1.13879e-05
1.07388e-05
1.00821e-05
9.43008e-06
8.79179e-06
8.89936e-06
9.79128e-06
1.07626e-05
1.18158e-05
1.29506e-05
1.41636e-05
1.54468e-05
1.67858e-05
1.81581e-05
1.95303e-05
2.08554e-05
2.20707e-05
2.3095e-05
2.38274e-05
2.41477e-05
2.39188e-05
2.29956e-05
2.12494e-05
1.86713e-05
1.59574e-05
)
;
    }
    inlet
    {
        type            calculated;
        value           nonuniform List<scalar> 
20
(
-5e-05
-5e-05
-5e-05
-5e-05
-5e-05
-5e-05
-5e-05
-5e-05
-5e-05
-5e-05
-5e-05
-5e-05
-5e-05
-5e-05
-5e-05
-5e-05
-5e-05
-5e-05
-5e-05
-5e-05
)
;
    }
    plate
    {
        type            calculated;
        value           uniform 0;
    }
    frontAndBack
    {
        type            empty;
        value           nonuniform List<scalar> 0();
    }
}


// ************************************************************************* //
