/*--------------------------------*- C++ -*----------------------------------*\
| =========                 |                                                 |
| \\      /  F ield         | OpenFOAM: The Open Source CFD Toolbox           |
|  \\    /   O peration     | Version:  v2012                                 |
|   \\  /    A nd           | Website:  www.openfoam.com                      |
|    \\/     M anipulation  |                                                 |
\*---------------------------------------------------------------------------*/
FoamFile
{
    version     2.0;
    format      ascii;
    class       volVectorField;
    location    "0.4";
    object      U;
}
// * * * * * * * * * * * * * * * * * * * * * * * * * * * * * * * * * * * * * //

dimensions      [0 1 -1 0 0 0 0];


internalField   nonuniform List<vector> 
800
(
(0.997911 0.0158007 0)
(0.989606 0.0563021 0)
(0.978972 0.100167 0)
(0.967953 0.146135 0)
(0.956999 0.193918 0)
(0.946238 0.243656 0)
(0.93574 0.295633 0)
(0.925523 0.350085 0)
(0.915562 0.407038 0)
(0.9058 0.466144 0)
(0.896148 0.526512 0)
(0.886475 0.586544 0)
(0.876613 0.643775 0)
(0.866361 0.694735 0)
(0.855407 0.734843 0)
(0.842922 0.758402 0)
(0.827669 0.758761 0)
(0.811534 0.728341 0)
(0.802541 0.657696 0)
(0.784389 0.535247 0)
(0.998233 0.0188745 0)
(0.990644 0.0615516 0)
(0.980565 0.106515 0)
(0.970099 0.153211 0)
(0.959776 0.201573 0)
(0.949797 0.251831 0)
(0.940312 0.304308 0)
(0.931446 0.359258 0)
(0.923332 0.41671 0)
(0.916139 0.476313 0)
(0.91009 0.537171 0)
(0.905466 0.597695 0)
(0.902584 0.655483 0)
(0.901737 0.70727 0)
(0.903031 0.748974 0)
(0.90606 0.775934 0)
(0.909696 0.783443 0)
(0.912591 0.767233 0)
(0.912889 0.722757 0)
(0.902853 0.644853 0)
(0.998672 0.02173 0)
(0.992228 0.0668535 0)
(0.983197 0.113018 0)
(0.973787 0.160389 0)
(0.96465 0.209158 0)
(0.956098 0.259635 0)
(0.948397 0.312139 0)
(0.941816 0.366868 0)
(0.93666 0.423748 0)
(0.933294 0.482278 0)
(0.932132 0.541371 0)
(0.933588 0.599237 0)
(0.937988 0.653333 0)
(0.945436 0.700451 0)
(0.955642 0.736945 0)
(0.967746 0.759174 0)
(0.980249 0.764128 0)
(0.991082 0.750082 0)
(0.997488 0.716925 0)
(0.995869 0.666648 0)
(0.999059 0.0237685 0)
(0.993888 0.0709809 0)
(0.986275 0.118165 0)
(0.978338 0.166005 0)
(0.970823 0.214891 0)
(0.964152 0.265178 0)
(0.958701 0.317136 0)
(0.954852 0.370853 0)
(0.95302 0.426099 0)
(0.953642 0.482193 0)
(0.957137 0.537887 0)
(0.963822 0.591321 0)
(0.973794 0.640092 0)
(0.986804 0.681447 0)
(1.00216 0.712624 0)
(1.01865 0.731291 0)
(1.03468 0.736005 0)
(1.04836 0.726572 0)
(1.05777 0.704204 0)
(1.06128 0.671526 0)
(0.999362 0.0252491 0)
(0.995447 0.0742007 0)
(0.989468 0.122238 0)
(0.98329 0.170373 0)
(0.977691 0.219134 0)
(0.973168 0.268884 0)
(0.970173 0.319825 0)
(0.969145 0.37192 0)
(0.970523 0.424796 0)
(0.974714 0.477646 0)
(0.982023 0.529174 0)
(0.992566 0.577634 0)
(1.00617 0.620959 0)
(1.02229 0.657009 0)
(1.03999 0.683891 0)
(1.05803 0.700289 0)
(1.07496 0.705725 0)
(1.08936 0.70068 0)
(1.10005 0.686525 0)
(1.10629 0.665321 0)
(0.999596 0.0263051 0)
(0.996862 0.0766174 0)
(0.992594 0.125298 0)
(0.988318 0.173533 0)
(0.984776 0.221928 0)
(0.982494 0.270833 0)
(0.981944 0.32037 0)
(0.983567 0.370395 0)
(0.987759 0.420435 0)
(0.994826 0.469638 0)
(1.00492 0.516774 0)
(1.01794 0.560322 0)
(1.03351 0.598635 0)
(1.05093 0.630171 0)
(1.06924 0.653738 0)
(1.0873 0.668702 0)
(1.10399 0.675096 0)
(1.1183 0.673605 0)
(1.12954 0.66543 0)
(1.13736 0.65208 0)
(0.99978 0.0269865 0)
(0.998122 0.0782323 0)
(0.995543 0.127289 0)
(0.99319 0.175405 0)
(0.991715 0.223208 0)
(0.99162 0.271014 0)
(0.993352 0.318872 0)
(0.997303 0.366563 0)
(1.00379 0.413568 0)
(1.01299 0.459062 0)
(1.0249 0.501961 0)
(1.03928 0.541024 0)
(1.05563 0.575019 0)
(1.07323 0.602903 0)
(1.09118 0.623991 0)
(1.10856 0.638062 0)
(1.12452 0.645376 0)
(1.13839 0.646611 0)
(1.14973 0.642735 0)
(1.15837 0.634855 0)
(0.999924 0.0273381 0)
(0.999231 0.0790784 0)
(0.998256 0.128221 0)
(0.997758 0.175995 0)
(0.998261 0.223012 0)
(1.0002 0.269538 0)
(1.00396 0.315566 0)
(1.00985 0.360832 0)
(1.01809 0.404819 0)
(1.02875 0.446783 0)
(1.04171 0.485823 0)
(1.05663 0.520979 0)
(1.07299 0.551379 0)
(1.0901 0.576361 0)
(1.10721 0.595578 0)
(1.12359 0.609038 0)
(1.13861 0.617085 0)
(1.15182 0.620322 0)
(1.16295 0.619517 0)
(1.17192 0.615495 0)
(1.00004 0.0274052 0)
(1.0002 0.0792172 0)
(1.00071 0.128154 0)
(1.00194 0.17538 0)
(1.00427 0.221455 0)
(1.00803 0.266595 0)
(1.01351 0.310746 0)
(1.02095 0.353628 0)
(1.03046 0.394761 0)
(1.04203 0.433511 0)
(1.05545 0.469161 0)
(1.07035 0.501008 0)
(1.08623 0.528463 0)
(1.10249 0.551141 0)
(1.11853 0.568912 0)
(1.13377 0.581905 0)
(1.14776 0.590477 0)
(1.1602 0.59515 0)
(1.17091 0.596533 0)
(1.17985 0.595257 0)
(1.00013 0.0272269 0)
(1.00106 0.0787165 0)
(1.00291 0.127173 0)
(1.00572 0.173666 0)
(1.00968 0.218687 0)
(1.01501 0.262396 0)
(1.02192 0.304706 0)
(1.03054 0.345338 0)
(1.04091 0.38387 0)
(1.05294 0.419782 0)
(1.06639 0.452532 0)
(1.0809 0.481625 0)
(1.09603 0.506691 0)
(1.11126 0.527537 0)
(1.12611 0.544166 0)
(1.14017 0.55677 0)
(1.1531 0.565692 0)
(1.16469 0.571376 0)
(1.17483 0.574315 0)
(1.1835 0.575005 0)
(1.00021 0.0268338 0)
(1.00182 0.0776401 0)
(1.00489 0.125366 0)
(1.00912 0.170972 0)
(1.0145 0.214867 0)
(1.02117 0.257154 0)
(1.02921 0.297718 0)
(1.03868 0.336295 0)
(1.04956 0.372523 0)
(1.06172 0.405993 0)
(1.07491 0.436308 0)
(1.0888 0.463143 0)
(1.103 0.486286 0)
(1.11712 0.505674 0)
(1.13077 0.521394 0)
(1.14364 0.533664 0)
(1.15549 0.542802 0)
(1.16619 0.549191 0)
(1.17565 0.553236 0)
(1.18389 0.555339 0)
(1.00028 0.026248 0)
(1.00251 0.0760431 0)
(1.0067 0.122819 0)
(1.01217 0.167417 0)
(1.0188 0.210153 0)
(1.02656 0.251069 0)
(1.03547 0.290025 0)
(1.04552 0.326775 0)
(1.05664 0.361013 0)
(1.06867 0.392427 0)
(1.0814 0.420738 0)
(1.09452 0.445747 0)
(1.10772 0.467359 0)
(1.12069 0.485595 0)
(1.13313 0.500592 0)
(1.14483 0.512576 0)
(1.15561 0.521842 0)
(1.16539 0.528722 0)
(1.17411 0.533557 0)
(1.1818 0.536681 0)
(1.00036 0.0254815 0)
(1.00318 0.0739679 0)
(1.00838 0.119608 0)
(1.01497 0.163112 0)
(1.02264 0.204692 0)
(1.03129 0.244321 0)
(1.04084 0.281836 0)
(1.05124 0.317002 0)
(1.06238 0.349565 0)
(1.07412 0.379287 0)
(1.08624 0.405982 0)
(1.0985 0.429543 0)
(1.11066 0.449955 0)
(1.12248 0.467296 0)
(1.13374 0.481728 0)
(1.14429 0.493481 0)
(1.15401 0.502824 0)
(1.16285 0.510052 0)
(1.17078 0.515459 0)
(1.17783 0.519329 0)
(1.00044 0.0245344 0)
(1.00386 0.0714418 0)
(1.01 0.115797 0)
(1.01757 0.158158 0)
(1.02613 0.198615 0)
(1.03548 0.237068 0)
(1.04548 0.273324 0)
(1.05604 0.307156 0)
(1.06705 0.338345 0)
(1.07835 0.366712 0)
(1.08978 0.392139 0)
(1.10114 0.414584 0)
(1.11225 0.434083 0)
(1.12292 0.450751 0)
(1.13303 0.464764 0)
(1.14245 0.476346 0)
(1.15113 0.485748 0)
(1.15902 0.493235 0)
(1.16613 0.499066 0)
(1.17248 0.50349 0)
(1.00055 0.0233947 0)
(1.00458 0.0684794 0)
(1.01161 0.11144 0)
(1.02006 0.152642 0)
(1.02936 0.192037 0)
(1.03924 0.229443 0)
(1.04953 0.264629 0)
(1.06012 0.297369 0)
(1.07086 0.32747 0)
(1.08165 0.354794 0)
(1.09233 0.379266 0)
(1.10277 0.400888 0)
(1.11283 0.419729 0)
(1.1224 0.435923 0)
(1.13138 0.449653 0)
(1.13971 0.461134 0)
(1.14735 0.470603 0)
(1.15431 0.4783 0)
(1.16058 0.484461 0)
(1.16619 0.489308 0)
(1.0007 0.0220412 0)
(1.00539 0.0650956 0)
(1.01327 0.106598 0)
(1.02248 0.146663 0)
(1.03238 0.185079 0)
(1.04265 0.221572 0)
(1.05311 0.255874 0)
(1.0636 0.287752 0)
(1.07402 0.317028 0)
(1.08424 0.343586 0)
(1.09416 0.367383 0)
(1.10369 0.388443 0)
(1.11274 0.406854 0)
(1.12123 0.422757 0)
(1.12912 0.436336 0)
(1.1364 0.447796 0)
(1.14304 0.45736 0)
(1.14906 0.465252 0)
(1.15449 0.471688 0)
(1.15936 0.476873 0)
(1.0009 0.0204366 0)
(1.00633 0.0613019 0)
(1.01498 0.101337 0)
(1.02483 0.140322 0)
(1.03519 0.177859 0)
(1.04574 0.213581 0)
(1.05626 0.247179 0)
(1.06659 0.27841 0)
(1.07663 0.307099 0)
(1.08629 0.333143 0)
(1.09548 0.356511 0)
(1.10414 0.377238 0)
(1.11222 0.39542 0)
(1.11971 0.411198 0)
(1.12658 0.424748 0)
(1.13285 0.436269 0)
(1.13853 0.44597 0)
(1.14365 0.454061 0)
(1.14826 0.460744 0)
(1.15238 0.466213 0)
(1.00118 0.0184622 0)
(1.00738 0.0569901 0)
(1.0167 0.0955739 0)
(1.02704 0.133546 0)
(1.03773 0.170304 0)
(1.04844 0.205391 0)
(1.05895 0.238462 0)
(1.0691 0.269255 0)
(1.07877 0.297592 0)
(1.0879 0.32337 0)
(1.09641 0.346556 0)
(1.10429 0.367185 0)
(1.11151 0.385345 0)
(1.11809 0.401171 0)
(1.12404 0.414828 0)
(1.1294 0.426504 0)
(1.1342 0.436397 0)
(1.13849 0.444707 0)
(1.14232 0.451629 0)
(1.14573 0.457348 0)
(1.0015 0.0158905 0)
(1.00844 0.0519092 0)
(1.01824 0.0890276 0)
(1.02891 0.126005 0)
(1.0398 0.162028 0)
(1.05061 0.196554 0)
(1.06109 0.229205 0)
(1.07108 0.259707 0)
(1.08046 0.287872 0)
(1.08915 0.313589 0)
(1.09713 0.336817 0)
(1.10437 0.357577 0)
(1.11089 0.375944 0)
(1.11672 0.392033 0)
(1.1219 0.405993 0)
(1.12648 0.417993 0)
(1.13053 0.428213 0)
(1.1341 0.436838 0)
(1.13726 0.444052 0)
(1.14005 0.450028 0)
(1.00173 0.013234 0)
(1.00913 0.0471613 0)
(1.01919 0.0831056 0)
(1.03002 0.119272 0)
(1.04103 0.154679 0)
(1.0519 0.188725 0)
(1.06238 0.221008 0)
(1.0723 0.251247 0)
(1.08154 0.279248 0)
(1.09002 0.304898 0)
(1.09771 0.328149 0)
(1.1046 0.349014 0)
(1.11072 0.367556 0)
(1.11611 0.383878 0)
(1.12081 0.398115 0)
(1.1249 0.410419 0)
(1.12843 0.420957 0)
(1.13148 0.4299 0)
(1.13409 0.43742 0)
(1.13635 0.443682 0)
(0.638781 0.349472 0)
(0.492875 0.221149 0)
(0.370425 0.134969 0)
(0.281581 0.079501 0)
(0.218867 0.0450858 0)
(0.174574 0.0246809 0)
(0.143431 0.0132124 0)
(0.121434 0.00711646 0)
(0.10552 0.00403667 0)
(0.0935577 0.00252706 0)
(0.0841878 0.00177115 0)
(0.076589 0.00134949 0)
(0.0702852 0.00106813 0)
(0.065008 0.000846263 0)
(0.0606127 0.000652477 0)
(0.0570325 0.000474053 0)
(0.0542552 0.000305799 0)
(0.0522933 0.000154384 0)
(0.0510295 5.97402e-05 0)
(0.0504643 -1.34543e-05 0)
(0.866166 0.53396 0)
(0.804402 0.419761 0)
(0.727358 0.316035 0)
(0.646361 0.22947 0)
(0.568059 0.161642 0)
(0.496348 0.111479 0)
(0.433409 0.0761975 0)
(0.37987 0.0523151 0)
(0.335194 0.0365228 0)
(0.298235 0.0261373 0)
(0.267676 0.0192094 0)
(0.242302 0.0144375 0)
(0.221119 0.0110043 0)
(0.203391 0.00841411 0)
(0.188614 0.00636691 0)
(0.176483 0.0046783 0)
(0.166854 0.00323937 0)
(0.159672 0.00202239 0)
(0.154651 0.00114625 0)
(0.151865 0.000627908 0)
(0.983002 0.602609 0)
(0.95631 0.528412 0)
(0.914741 0.448501 0)
(0.860991 0.369215 0)
(0.799074 0.295651 0)
(0.73323 0.231306 0)
(0.667324 0.177837 0)
(0.604389 0.135253 0)
(0.54641 0.102431 0)
(0.49438 0.0776834 0)
(0.448526 0.0592132 0)
(0.408591 0.0454069 0)
(0.37409 0.0349597 0)
(0.344494 0.0268865 0)
(0.319353 0.0204742 0)
(0.298351 0.0152226 0)
(0.281327 0.0108071 0)
(0.268234 0.00709759 0)
(0.258716 0.00428246 0)
(0.252993 0.00264076 0)
(1.05803 0.630701 0)
(1.04659 0.581039 0)
(1.02491 0.52295 0)
(0.992455 0.459607 0)
(0.950017 0.39465 0)
(0.899461 0.331604 0)
(0.843354 0.273357 0)
(0.784509 0.221829 0)
(0.725547 0.177891 0)
(0.668597 0.141507 0)
(0.615162 0.112004 0)
(0.566154 0.0883656 0)
(0.522014 0.0694777 0)
(0.482878 0.0542912 0)
(0.448735 0.0419059 0)
(0.419546 0.0316026 0)
(0.395338 0.0228661 0)
(0.376218 0.0154582 0)
(0.361905 0.00963196 0)
(0.352833 0.00608424 0)
(1.10802 0.638375 0)
(1.10464 0.604547 0)
(1.09455 0.56302 0)
(1.07641 0.514918 0)
(1.04959 0.462102 0)
(1.01422 0.406918 0)
(0.971286 0.351856 0)
(0.922427 0.299189 0)
(0.869685 0.250678 0)
(0.815194 0.207425 0)
(0.760922 0.169863 0)
(0.708496 0.137869 0)
(0.659147 0.110933 0)
(0.613744 0.0883344 0)
(0.572885 0.0692911 0)
(0.537005 0.0530674 0)
(0.506493 0.0390747 0)
(0.481764 0.0270205 0)
(0.462755 0.0172461 0)
(0.450197 0.0109972 0)
(1.14197 0.634422 0)
(1.14327 0.611469 0)
(1.14016 0.58214 0)
(1.13135 0.546559 0)
(1.11575 0.505408 0)
(1.09272 0.459911 0)
(1.06216 0.411711 0)
(1.02461 0.36266 0)
(0.98118 0.314564 0)
(0.933404 0.26896 0)
(0.883039 0.226953 0)
(0.831855 0.189161 0)
(0.781472 0.15574 0)
(0.733284 0.126486 0)
(0.688438 0.100948 0)
(0.647885 0.078573 0)
(0.61246 0.0588447 0)
(0.582987 0.0415087 0)
(0.559732 0.0270465 0)
(0.543809 0.0173677 0)
(1.16465 0.623613 0)
(1.16875 0.608286 0)
(1.16996 0.587864 0)
(1.16722 0.562034 0)
(1.15946 0.530825 0)
(1.14573 0.494679 0)
(1.12541 0.454458 0)
(1.09829 0.411374 0)
(1.06469 0.366852 0)
(1.02539 0.322352 0)
(0.981627 0.27919 0)
(0.934888 0.23839 0)
(0.88679 0.200614 0)
(0.838932 0.166149 0)
(0.792812 0.134958 0)
(0.749795 0.106788 0)
(0.711143 0.0813182 0)
(0.678109 0.0584273 0)
(0.651342 0.0388003 0)
(0.632401 0.0251034 0)
(1.17909 0.608783 0)
(1.18483 0.598907 0)
(1.18873 0.585021 0)
(1.18994 0.566649 0)
(1.18753 0.543495 0)
(1.18056 0.515529 0)
(1.16819 0.483043 0)
(1.14983 0.446664 0)
(1.12524 0.407319 0)
(1.09458 0.366136 0)
(1.05849 0.324309 0)
(1.018 0.282955 0)
(0.974446 0.24299 0)
(0.92935 0.205047 0)
(0.884317 0.169457 0)
(0.840949 0.136292 0)
(0.800831 0.105489 0)
(0.765585 0.0771278 0)
(0.73623 0.0521513 0)
(0.714803 0.0340413 0)
(1.1874 0.591784 0)
(1.19403 0.585852 0)
(1.19952 0.576788 0)
(1.20324 0.56408 0)
(1.20442 0.547294 0)
(1.20222 0.526142 0)
(1.19579 0.500547 0)
(1.18438 0.470696 0)
(1.16742 0.437057 0)
(1.14466 0.40035 0)
(1.11624 0.361482 0)
(1.08268 0.321438 0)
(1.04493 0.281159 0)
(1.00425 0.241441 0)
(0.962126 0.202859 0)
(0.920223 0.165758 0)
(0.880285 0.130332 0)
(0.844198 0.0968918 0)
(0.813273 0.0666644 0)
(0.790019 0.0439656 0)
(1.19108 0.573868 0)
(1.19808 0.570809 0)
(1.20444 0.565315 0)
(1.20967 0.556896 0)
(1.21317 0.545077 0)
(1.21423 0.529446 0)
(1.21208 0.509713 0)
(1.20595 0.485762 0)
(1.19513 0.4577 0)
(1.17913 0.425872 0)
(1.15771 0.390845 0)
(1.13099 0.353349 0)
(1.0995 0.314195 0)
(1.06414 0.27417 0)
(1.02617 0.233953 0)
(0.98713 0.194065 0)
(0.948777 0.154906 0)
(0.91312 0.117003 0)
(0.881641 0.0818687 0)
(0.857291 0.0546272 0)
(1.19126 0.555896 0)
(1.19828 0.554944 0)
(1.20499 0.552103 0)
(1.21103 0.546927 0)
(1.21593 0.53895 0)
(1.21912 0.527718 0)
(1.21993 0.512826 0)
(1.21766 0.493973 0)
(1.21158 0.471007 0)
(1.20106 0.443969 0)
(1.18566 0.413104 0)
(1.1652 0.378851 0)
(1.13983 0.341798 0)
(1.1101 0.302605 0)
(1.07698 0.261928 0)
(1.04176 0.220354 0)
(1.00608 0.178414 0)
(0.971932 0.136805 0)
(0.940837 0.097297 0)
(0.916135 0.0657619 0)
(1.18877 0.538475 0)
(1.19556 0.539075 0)
(1.20226 0.538209 0)
(1.20861 0.535485 0)
(1.21424 0.530467 0)
(1.21871 0.522699 0)
(1.22147 0.51173 0)
(1.22189 0.497151 0)
(1.21931 0.478643 0)
(1.21307 0.456017 0)
(1.20261 0.429253 0)
(1.18756 0.398511 0)
(1.1678 0.364123 0)
(1.14358 0.326554 0)
(1.11552 0.286342 0)
(1.08465 0.244046 0)
(1.0524 0.200243 0)
(1.02062 0.15574 0)
(0.990712 0.112518 0)
(0.966363 0.0771073 0)
(1.18429 0.522032 0)
(1.19068 0.523781 0)
(1.19711 0.524394 0)
(1.2034 0.523524 0)
(1.20928 0.520776 0)
(1.2144 0.515714 0)
(1.21831 0.507876 0)
(1.2205 0.496804 0)
(1.22038 0.482074 0)
(1.21733 0.463342 0)
(1.21076 0.440379 0)
(1.20019 0.413109 0)
(1.18533 0.381616 0)
(1.16617 0.346144 0)
(1.14307 0.307058 0)
(1.11675 0.264816 0)
(1.08836 0.21997 0)
(1.05954 0.173374 0)
(1.03145 0.127162 0)
(1.00808 0.0884195 0)
(1.17835 0.50687 0)
(1.18421 0.509478 0)
(1.19019 0.511201 0)
(1.19617 0.511735 0)
(1.20194 0.510725 0)
(1.20723 0.507761 0)
(1.21171 0.502394 0)
(1.21494 0.494147 0)
(1.21644 0.482541 0)
(1.21565 0.467131 0)
(1.21201 0.44754 0)
(1.20501 0.4235 0)
(1.19426 0.394884 0)
(1.17958 0.361715 0)
(1.16108 0.324168 0)
(1.13923 0.282556 0)
(1.11487 0.237353 0)
(1.08937 0.189403 0)
(1.06356 0.140937 0)
(1.04167 0.0994868 0)
(1.17141 0.493201 0)
(1.17665 0.496459 0)
(1.18205 0.499022 0)
(1.18753 0.500621 0)
(1.19293 0.500934 0)
(1.19806 0.499585 0)
(1.20266 0.496143 0)
(1.20639 0.490133 0)
(1.20884 0.481052 0)
(1.20956 0.468395 0)
(1.20804 0.451687 0)
(1.20379 0.430518 0)
(1.19638 0.404587 0)
(1.18551 0.373725 0)
(1.17113 0.337921 0)
(1.15347 0.297326 0)
(1.13309 0.252304 0)
(1.11105 0.203652 0)
(1.08778 0.153637 0)
(1.06775 0.110139 0)
(1.16389 0.481167 0)
(1.16845 0.484923 0)
(1.1732 0.488124 0)
(1.17805 0.490529 0)
(1.18291 0.491846 0)
(1.18764 0.491725 0)
(1.19204 0.489759 0)
(1.19586 0.485486 0)
(1.19878 0.4784 0)
(1.20042 0.467963 0)
(1.20036 0.45364 0)
(1.19815 0.434923 0)
(1.19336 0.411379 0)
(1.18567 0.382683 0)
(1.17487 0.348658 0)
(1.161 0.309302 0)
(1.14438 0.264856 0)
(1.12575 0.216044 0)
(1.1051 0.165124 0)
(1.08713 0.120224 0)
(1.15621 0.47083 0)
(1.16008 0.474978 0)
(1.16413 0.478669 0)
(1.16829 0.481685 0)
(1.17252 0.483754 0)
(1.1767 0.484553 0)
(1.1807 0.483697 0)
(1.18434 0.48074 0)
(1.18738 0.475182 0)
(1.18952 0.466477 0)
(1.19041 0.454054 0)
(1.18967 0.437346 0)
(1.18691 0.415827 0)
(1.18177 0.389056 0)
(1.17399 0.356721 0)
(1.16345 0.318691 0)
(1.15022 0.275092 0)
(1.13476 0.226567 0)
(1.11664 0.175306 0)
(1.10076 0.129602 0)
(1.1489 0.462232 0)
(1.15211 0.46669 0)
(1.15546 0.470753 0)
(1.15894 0.474216 0)
(1.1625 0.476825 0)
(1.16608 0.478275 0)
(1.1696 0.478202 0)
(1.17292 0.476181 0)
(1.17587 0.471729 0)
(1.17822 0.464304 0)
(1.1797 0.453326 0)
(1.18 0.438197 0)
(1.17875 0.418336 0)
(1.17562 0.393224 0)
(1.17029 0.362456 0)
(1.16252 0.325797 0)
(1.15221 0.283277 0)
(1.1395 0.235459 0)
(1.12358 0.184385 0)
(1.10965 0.138424 0)
(1.14264 0.45514 0)
(1.14525 0.459818 0)
(1.14798 0.464116 0)
(1.15084 0.467848 0)
(1.1538 0.470785 0)
(1.15684 0.472645 0)
(1.15989 0.473093 0)
(1.16288 0.47173 0)
(1.16567 0.468094 0)
(1.16811 0.461661 0)
(1.16997 0.451853 0)
(1.17098 0.438059 0)
(1.17084 0.419668 0)
(1.1692 0.396108 0)
(1.16573 0.366902 0)
(1.1601 0.331737 0)
(1.15205 0.290563 0)
(1.14146 0.243866 0)
(1.12717 0.193473 0)
(1.11477 0.147776 0)
(1.1384 0.44907 0)
(1.14051 0.454035 0)
(1.14278 0.458651 0)
(1.14523 0.462742 0)
(1.14783 0.466094 0)
(1.15057 0.468441 0)
(1.15339 0.469466 0)
(1.15623 0.468788 0)
(1.15899 0.465957 0)
(1.16152 0.460458 0)
(1.16364 0.451713 0)
(1.16511 0.439101 0)
(1.16564 0.421984 0)
(1.16491 0.399751 0)
(1.16256 0.371871 0)
(1.1582 0.337969 0)
(1.15148 0.297936 0)
(1.14208 0.252201 0)
(1.12861 0.202526 0)
(1.11705 0.157394 0)
)
;

boundaryField
{
    zeroGradientPlanes
    {
        type            zeroGradient;
    }
    inlet
    {
        type            fixedValue;
        value           uniform (1 0 0);
    }
    plate
    {
        type            noSlip;
    }
    frontAndBack
    {
        type            empty;
    }
}


// ************************************************************************* //
