/*--------------------------------*- C++ -*----------------------------------*\
| =========                 |                                                 |
| \\      /  F ield         | OpenFOAM: The Open Source CFD Toolbox           |
|  \\    /   O peration     | Version:  v2012                                 |
|   \\  /    A nd           | Website:  www.openfoam.com                      |
|    \\/     M anipulation  |                                                 |
\*---------------------------------------------------------------------------*/
FoamFile
{
    version     2.0;
    format      ascii;
    class       volScalarField;
    location    "0.6";
    object      p;
}
// * * * * * * * * * * * * * * * * * * * * * * * * * * * * * * * * * * * * * //

dimensions      [0 2 -2 0 0 0 0];


internalField   nonuniform List<scalar> 
800
(
2.22912e-07
0.00606799
0.019144
0.0344974
0.0508654
0.0681416
0.0863651
0.105714
0.12653
0.149325
0.174786
0.203788
0.237411
0.2769
0.322975
0.374354
0.431718
0.517521
0.655735
0.609308
-0.0139981
-0.0106326
-0.000111952
0.0126399
0.026231
0.0403285
0.0547068
0.0692148
0.0837116
0.0979586
0.111483
0.123399
0.132205
0.135619
0.130325
0.111596
0.0744815
0.0185643
-0.055089
-0.173971
-0.035381
-0.0346861
-0.0271684
-0.0174895
-0.00718875
0.00317381
0.0131195
0.0221916
0.029862
0.0354233
0.0379039
0.0360163
0.0281734
0.0125986
-0.012499
-0.0487234
-0.0971836
-0.158308
-0.232746
-0.32127
-0.0591282
-0.0596025
-0.0542642
-0.0471424
-0.0397387
-0.032734
-0.0267565
-0.0224313
-0.0204541
-0.0216526
-0.0270022
-0.0375909
-0.0545275
-0.0787999
-0.111107
-0.151674
-0.200094
-0.255364
-0.316163
-0.380536
-0.0845351
-0.0853548
-0.0816927
-0.076815
-0.0720737
-0.0681888
-0.0658446
-0.0657169
-0.0685138
-0.0749953
-0.0859468
-0.102109
-0.12407
-0.152145
-0.186255
-0.22585
-0.269886
-0.316924
-0.365312
-0.413286
-0.11131
-0.11216
-0.109908
-0.107053
-0.104749
-0.103691
-0.104542
-0.107934
-0.114478
-0.124762
-0.139295
-0.158443
-0.182343
-0.210828
-0.243397
-0.279224
-0.317226
-0.356186
-0.39489
-0.432219
-0.138993
-0.139715
-0.138652
-0.137576
-0.137419
-0.138804
-0.142308
-0.148457
-0.157715
-0.170457
-0.186931
-0.207202
-0.231108
-0.258242
-0.287966
-0.319465
-0.351828
-0.384142
-0.415587
-0.445486
-0.167156
-0.167655
-0.167581
-0.168039
-0.169721
-0.17314
-0.178756
-0.186957
-0.198041
-0.212191
-0.229446
-0.249667
-0.272535
-0.297554
-0.324098
-0.351465
-0.378946
-0.405893
-0.431769
-0.456168
-0.195459
-0.195688
-0.196437
-0.198201
-0.201427
-0.206498
-0.213737
-0.223387
-0.235592
-0.250378
-0.267634
-0.287108
-0.308411
-0.331054
-0.354482
-0.378134
-0.401485
-0.424085
-0.445592
-0.46576
-0.223631
-0.223573
-0.225012
-0.227881
-0.232387
-0.238772
-0.247217
-0.257826
-0.270616
-0.285493
-0.302254
-0.320592
-0.340113
-0.360376
-0.380924
-0.401323
-0.421195
-0.440238
-0.458232
-0.475035
-0.251443
-0.251098
-0.253125
-0.256937
-0.262501
-0.269918
-0.279231
-0.290426
-0.303413
-0.318018
-0.333989
-0.351007
-0.368707
-0.386713
-0.404663
-0.422234
-0.439162
-0.455245
-0.470351
-0.484401
-0.278699
-0.278081
-0.280631
-0.285263
-0.291712
-0.299942
-0.309872
-0.321381
-0.334303
-0.348414
-0.363443
-0.379083
-0.395018
-0.41094
-0.426572
-0.441682
-0.45609
-0.469672
-0.482352
-0.494096
-0.305225
-0.304362
-0.307407
-0.312785
-0.320003
-0.328894
-0.339264
-0.35091
-0.363607
-0.377106
-0.391136
-0.405422
-0.419697
-0.43372
-0.447289
-0.460243
-0.472471
-0.483901
-0.494502
-0.50427
-0.330854
-0.329795
-0.333357
-0.339461
-0.347389
-0.356852
-0.367561
-0.379243
-0.391637
-0.404484
-0.417527
-0.430527
-0.44327
-0.455576
-0.467305
-0.478357
-0.488672
-0.498222
-0.507006
-0.515044
-0.3554
-0.354232
-0.358389
-0.365257
-0.373896
-0.383909
-0.394923
-0.406614
-0.418696
-0.430911
-0.443026
-0.454839
-0.466188
-0.476946
-0.487028
-0.496385
-0.504999
-0.512877
-0.520044
-0.526538
-0.378631
-0.377495
-0.382383
-0.39011
-0.399517
-0.410114
-0.421461
-0.433196
-0.445021
-0.456685
-0.467979
-0.478739
-0.488847
-0.498224
-0.506832
-0.514666
-0.521746
-0.528108
-0.533803
-0.538886
-0.400305
-0.399484
-0.405325
-0.41406
-0.42433
-0.435573
-0.447305
-0.459142
-0.470787
-0.482
-0.492601
-0.502461
-0.5115
-0.51968
-0.527001
-0.533491
-0.5392
-0.544192
-0.548537
-0.552309
-0.420317
-0.42052
-0.427773
-0.437799
-0.449113
-0.461121
-0.473322
-0.485326
-0.496841
-0.50765
-0.517603
-0.526609
-0.534631
-0.541675
-0.54778
-0.55301
-0.55744
-0.561155
-0.564238
-0.566772
-0.438164
-0.440587
-0.449906
-0.461645
-0.474334
-0.487415
-0.500401
-0.512903
-0.524624
-0.535352
-0.544945
-0.553333
-0.560503
-0.566493
-0.571383
-0.575276
-0.578299
-0.580582
-0.582263
-0.583477
-0.449682
-0.454061
-0.464849
-0.477835
-0.49159
-0.505626
-0.519501
-0.532829
-0.545306
-0.556704
-0.566865
-0.575702
-0.583186
-0.589341
-0.594228
-0.597936
-0.60057
-0.602251
-0.6031
-0.603164
-0.353257
-0.878771
-1.09306
-1.19111
-1.22616
-1.21673
-1.18246
-1.13894
-1.09502
-1.05465
-1.01905
-0.988101
-0.961177
-0.937627
-0.916957
-0.898913
-0.883513
-0.871182
-0.862938
-0.858219
-0.384013
-0.56785
-0.70902
-0.818851
-0.899465
-0.95129
-0.978818
-0.988372
-0.985806
-0.975792
-0.961736
-0.945915
-0.929731
-0.914006
-0.899246
-0.885834
-0.874167
-0.864844
-0.859031
-0.855466
-0.421388
-0.527208
-0.627394
-0.714325
-0.78508
-0.838804
-0.876398
-0.900061
-0.912549
-0.916627
-0.914762
-0.90898
-0.900841
-0.891501
-0.881828
-0.872513
-0.864182
-0.857567
-0.854129
-0.852148
-0.447227
-0.516966
-0.587189
-0.653521
-0.712827
-0.76298
-0.802948
-0.8328
-0.853441
-0.866256
-0.872799
-0.87459
-0.872983
-0.869134
-0.864009
-0.858445
-0.853197
-0.849104
-0.84795
-0.847814
-0.460862
-0.510362
-0.561943
-0.613403
-0.662477
-0.707149
-0.745901
-0.777872
-0.802871
-0.821263
-0.833799
-0.841441
-0.84522
-0.846136
-0.845123
-0.843048
-0.840729
-0.839063
-0.840117
-0.841929
-0.468666
-0.506564
-0.54665
-0.587759
-0.628472
-0.667312
-0.702937
-0.734294
-0.760729
-0.782013
-0.798309
-0.81008
-0.817987
-0.822794
-0.825301
-0.826325
-0.82668
-0.827268
-0.830366
-0.834043
-0.474474
-0.504622
-0.536776
-0.570311
-0.604355
-0.637895
-0.66988
-0.699339
-0.725496
-0.747845
-0.76619
-0.780625
-0.791485
-0.799282
-0.804647
-0.808288
-0.810968
-0.813552
-0.818448
-0.823734
-0.479742
-0.504276
-0.530584
-0.558321
-0.586955
-0.615805
-0.644097
-0.671032
-0.695874
-0.718033
-0.737125
-0.753004
-0.765757
-0.775671
-0.783198
-0.788917
-0.793505
-0.797758
-0.804136
-0.810636
-0.485206
-0.505454
-0.52724
-0.550372
-0.574523
-0.59924
-0.623971
-0.648094
-0.670983
-0.692066
-0.710896
-0.727196
-0.740883
-0.75207
-0.761044
-0.768253
-0.77427
-0.779795
-0.787283
-0.794487
-0.491206
-0.508045
-0.526196
-0.545555
-0.565916
-0.586979
-0.608354
-0.629574
-0.650134
-0.669533
-0.687334
-0.70321
-0.716982
-0.728639
-0.738342
-0.746418
-0.753331
-0.75967
-0.767845
-0.775166
-0.497896
-0.511935
-0.527077
-0.543261
-0.560357
-0.578165
-0.596407
-0.614738
-0.632765
-0.650075
-0.666276
-0.681045
-0.694168
-0.705562
-0.715297
-0.723602
-0.730845
-0.737494
-0.745894
-0.752699
-0.505343
-0.517024
-0.529609
-0.543063
-0.557298
-0.572176
-0.587498
-0.603009
-0.618407
-0.633362
-0.647548
-0.660676
-0.672534
-0.683012
-0.692127
-0.70004
-0.707035
-0.713469
-0.721614
-0.727259
-0.513588
-0.523234
-0.533599
-0.544655
-0.55634
-0.568551
-0.581142
-0.593921
-0.606657
-0.619093
-0.630969
-0.642044
-0.652133
-0.661134
-0.669043
-0.675979
-0.682165
-0.687859
-0.695273
-0.699141
-0.522669
-0.530522
-0.538915
-0.547823
-0.557194
-0.566945
-0.576962
-0.587097
-0.597172
-0.606988
-0.616344
-0.625053
-0.632973
-0.640025
-0.646214
-0.651647
-0.656505
-0.660962
-0.667192
-0.668726
-0.532644
-0.538879
-0.545483
-0.552427
-0.559659
-0.567105
-0.574671
-0.582235
-0.589658
-0.596786
-0.603469
-0.609573
-0.615001
-0.619718
-0.623754
-0.627226
-0.630296
-0.633078
-0.637724
-0.636464
-0.543599
-0.548343
-0.553289
-0.558395
-0.563607
-0.568853
-0.574045
-0.579081
-0.583849
-0.588231
-0.592121
-0.595432
-0.598121
-0.600197
-0.601736
-0.602881
-0.603796
-0.60455
-0.607291
-0.602915
-0.55571
-0.559032
-0.562381
-0.565707
-0.568948
-0.572034
-0.574884
-0.577408
-0.579514
-0.581115
-0.582135
-0.582532
-0.582307
-0.581522
-0.5803
-0.578826
-0.57728
-0.575712
-0.576279
-0.568586
-0.568924
-0.570887
-0.572701
-0.574313
-0.57566
-0.576665
-0.577246
-0.577312
-0.576776
-0.57556
-0.573612
-0.57092
-0.567533
-0.563568
-0.559213
-0.554718
-0.550301
-0.546031
-0.544066
-0.532838
-0.584392
-0.585077
-0.585446
-0.585392
-0.584814
-0.583611
-0.581688
-0.578958
-0.575346
-0.570801
-0.565311
-0.558922
-0.551753
-0.544012
-0.535995
-0.528056
-0.520493
-0.513438
-0.508726
-0.493732
-0.602341
-0.600654
-0.598289
-0.595293
-0.591605
-0.587159
-0.581897
-0.575766
-0.568723
-0.560752
-0.551883
-0.542216
-0.531943
-0.521359
-0.51086
-0.500898
-0.491856
-0.483976
-0.477792
-0.459627
)
;

boundaryField
{
    zeroGradientPlanes
    {
        type            zeroGradient;
    }
    inlet
    {
        type            zeroGradient;
    }
    plate
    {
        type            zeroGradient;
    }
    frontAndBack
    {
        type            empty;
    }
}


// ************************************************************************* //
