/*--------------------------------*- C++ -*----------------------------------*\
| =========                 |                                                 |
| \\      /  F ield         | OpenFOAM: The Open Source CFD Toolbox           |
|  \\    /   O peration     | Version:  v2012                                 |
|   \\  /    A nd           | Website:  www.openfoam.com                      |
|    \\/     M anipulation  |                                                 |
\*---------------------------------------------------------------------------*/
FoamFile
{
    version     2.0;
    format      ascii;
    class       surfaceScalarField;
    location    "0.6";
    object      phi;
}
// * * * * * * * * * * * * * * * * * * * * * * * * * * * * * * * * * * * * * //

dimensions      [0 3 -1 0 0 0 0];
oriented        oriented;


internalField   nonuniform List<scalar> 
1540
(
4.96846e-05
1.76134e-06
4.91957e-05
5.44202e-06
4.866e-05
8.73956e-06
4.8113e-05
1.16121e-05
4.75706e-05
1.40831e-05
4.70398e-05
1.62013e-05
4.65227e-05
1.80164e-05
4.60191e-05
1.95667e-05
4.55269e-05
2.08742e-05
4.50423e-05
2.19423e-05
4.45599e-05
2.27563e-05
4.40719e-05
2.32851e-05
4.35678e-05
2.34849e-05
4.30332e-05
2.33038e-05
4.24486e-05
2.26879e-05
4.17879e-05
2.15891e-05
4.10077e-05
1.99795e-05
4.00217e-05
1.78608e-05
3.87109e-05
1.52271e-05
1.19957e-05
3.7078e-05
4.97203e-05
2.04103e-06
4.92646e-05
5.89768e-06
4.87543e-05
9.24989e-06
4.82359e-05
1.21305e-05
4.77288e-05
1.45902e-05
4.72428e-05
1.66873e-05
4.67846e-05
1.84746e-05
4.63607e-05
1.99907e-05
4.59785e-05
2.12564e-05
4.56477e-05
2.2273e-05
4.5381e-05
2.3023e-05
4.51935e-05
2.34727e-05
4.51001e-05
2.35782e-05
4.51105e-05
2.32934e-05
4.52191e-05
2.25793e-05
4.53921e-05
2.14162e-05
4.55568e-05
1.98148e-05
4.55977e-05
1.78199e-05
4.53271e-05
1.54977e-05
1.29551e-05
4.43676e-05
4.97744e-05
2.26666e-06
4.93714e-05
6.30067e-06
4.89131e-05
9.70815e-06
4.84507e-05
1.25929e-05
4.8009e-05
1.50319e-05
4.76035e-05
1.70929e-05
4.72473e-05
1.88308e-05
4.69548e-05
2.02831e-05
4.67429e-05
2.14683e-05
4.66311e-05
2.23848e-05
4.66403e-05
2.30138e-05
4.6789e-05
2.3324e-05
4.70879e-05
2.32793e-05
4.75321e-05
2.28492e-05
4.80923e-05
2.20191e-05
4.87089e-05
2.07997e-05
4.92903e-05
1.92334e-05
4.97166e-05
1.73936e-05
4.98366e-05
1.53777e-05
1.33044e-05
4.94873e-05
4.98267e-05
2.43998e-06
4.94919e-05
6.63544e-06
4.91053e-05
1.00948e-05
4.87202e-05
1.2978e-05
4.83662e-05
1.53858e-05
4.80642e-05
1.7395e-05
4.7833e-05
1.9062e-05
4.76926e-05
2.04236e-05
4.76643e-05
2.14966e-05
4.77697e-05
2.22794e-05
4.80272e-05
2.27564e-05
4.84469e-05
2.29042e-05
4.90249e-05
2.27013e-05
4.97371e-05
2.21371e-05
5.05355e-05
2.12206e-05
5.13492e-05
1.9986e-05
5.20901e-05
1.84925e-05
5.26641e-05
1.68196e-05
5.29836e-05
1.50581e-05
1.32997e-05
5.29884e-05
4.98731e-05
2.56691e-06
4.96131e-05
6.8954e-06
4.93108e-05
1.03971e-05
4.90174e-05
1.32713e-05
4.87653e-05
1.5638e-05
4.85787e-05
1.75816e-05
4.84798e-05
1.91608e-05
4.84907e-05
2.04127e-05
4.86325e-05
2.13547e-05
4.89231e-05
2.19888e-05
4.93728e-05
2.23066e-05
4.998e-05
2.22971e-05
5.07262e-05
2.1955e-05
5.15744e-05
2.12889e-05
5.24694e-05
2.03257e-05
5.33432e-05
1.91121e-05
5.41243e-05
1.77113e-05
5.47481e-05
1.61959e-05
5.51672e-05
1.4639e-05
1.3107e-05
5.53599e-05
4.99137e-05
2.6532e-06
4.97291e-05
7.07995e-06
4.95167e-05
1.06096e-05
4.93223e-05
1.34657e-05
4.91778e-05
1.57825e-05
4.91086e-05
1.76508e-05
4.91374e-05
1.9132e-05
4.92853e-05
2.02648e-05
4.95697e-05
2.10703e-05
5.00019e-05
2.15567e-05
5.0583e-05
2.17254e-05
5.13011e-05
2.15791e-05
5.21285e-05
2.11276e-05
5.30233e-05
2.0394e-05
5.3933e-05
1.9416e-05
5.48007e-05
1.82444e-05
5.55735e-05
1.69386e-05
5.62093e-05
1.55601e-05
5.66822e-05
1.41661e-05
1.28047e-05
5.69845e-05
4.9949e-05
2.70421e-06
4.98368e-05
7.19213e-06
4.97144e-05
1.0732e-05
4.96197e-05
1.35604e-05
4.95817e-05
1.58205e-05
4.96244e-05
1.76082e-05
4.97687e-05
1.89877e-05
5.00322e-05
2.00013e-05
5.04272e-05
2.06753e-05
5.09581e-05
2.10258e-05
5.16185e-05
2.10651e-05
5.23894e-05
2.08082e-05
5.32399e-05
2.02771e-05
5.41294e-05
1.95045e-05
5.50126e-05
1.85328e-05
5.58448e-05
1.74121e-05
5.65883e-05
1.61951e-05
5.72157e-05
1.49327e-05
5.77125e-05
1.36694e-05
1.24409e-05
5.80763e-05
4.99794e-05
2.72476e-06
4.99346e-05
7.23693e-06
4.98985e-05
1.07681e-05
4.98997e-05
1.35592e-05
4.99621e-05
1.57581e-05
5.01063e-05
1.7464e-05
5.03497e-05
1.87442e-05
5.07057e-05
1.96454e-05
5.1181e-05
2.02e-05
5.17742e-05
2.04326e-05
5.24737e-05
2.03656e-05
5.32576e-05
2.00242e-05
5.40954e-05
1.94393e-05
5.49512e-05
1.86487e-05
5.57878e-05
1.76962e-05
5.65716e-05
1.66284e-05
5.72755e-05
1.54912e-05
5.78818e-05
1.43264e-05
5.8382e-05
1.31692e-05
1.2047e-05
5.87759e-05
5.00057e-05
2.71904e-06
5.00224e-05
7.22024e-06
5.00665e-05
1.0724e-05
5.01566e-05
1.34692e-05
5.031e-05
1.56047e-05
5.05428e-05
1.72312e-05
5.0868e-05
1.8419e-05
5.12942e-05
1.92192e-05
5.18236e-05
1.96706e-05
5.24503e-05
1.98058e-05
5.31602e-05
1.96557e-05
5.39312e-05
1.92532e-05
5.47355e-05
1.8635e-05
5.55428e-05
1.78414e-05
5.63239e-05
1.69151e-05
5.70535e-05
1.58988e-05
5.77126e-05
1.48321e-05
5.82894e-05
1.37496e-05
5.87788e-05
1.26797e-05
1.16441e-05
5.91817e-05
5.00286e-05
2.69047e-06
5.01008e-05
7.14804e-06
5.0218e-05
1.06068e-05
5.03882e-05
1.32989e-05
5.06219e-05
1.5371e-05
5.09296e-05
1.69235e-05
5.13196e-05
1.8029e-05
5.17963e-05
1.87425e-05
5.23582e-05
1.91087e-05
5.29969e-05
1.91671e-05
5.36975e-05
1.89552e-05
5.44393e-05
1.85114e-05
5.51985e-05
1.78758e-05
5.59504e-05
1.70895e-05
5.66723e-05
1.61932e-05
5.73458e-05
1.52254e-05
5.79573e-05
1.42205e-05
5.8499e-05
1.32079e-05
5.89678e-05
1.22109e-05
1.12469e-05
5.9365e-05
5.00488e-05
2.64168e-06
5.01711e-05
7.02573e-06
5.03541e-05
1.04238e-05
5.05953e-05
1.30577e-05
5.0898e-05
1.50683e-05
5.12671e-05
1.65544e-05
5.17065e-05
1.75895e-05
5.2217e-05
1.8232e-05
5.27945e-05
1.85313e-05
5.34294e-05
1.85321e-05
5.41074e-05
1.82772e-05
5.48103e-05
1.78085e-05
5.55183e-05
1.71678e-05
5.62119e-05
1.63959e-05
5.6874e-05
1.5531e-05
5.74911e-05
1.46083e-05
5.80536e-05
1.3658e-05
5.85563e-05
1.27052e-05
5.89977e-05
1.17695e-05
1.08656e-05
5.9379e-05
5.00673e-05
2.57437e-06
5.02352e-05
6.8578e-06
5.04772e-05
1.01819e-05
5.07805e-05
1.27543e-05
5.11414e-05
1.47074e-05
5.15595e-05
1.61363e-05
5.20348e-05
1.71142e-05
5.25654e-05
1.77015e-05
5.31454e-05
1.79513e-05
5.37652e-05
1.79123e-05
5.44119e-05
1.76305e-05
5.50702e-05
1.71502e-05
5.57242e-05
1.65138e-05
5.6359e-05
1.57611e-05
5.69617e-05
1.49283e-05
5.75228e-05
1.40473e-05
5.80356e-05
1.31452e-05
5.84969e-05
1.22439e-05
5.89061e-05
1.13604e-05
1.05073e-05
5.92644e-05
5.00852e-05
2.48919e-06
5.02955e-05
6.64748e-06
5.05904e-05
9.88699e-06
5.09477e-05
1.2397e-05
5.13568e-05
1.42983e-05
5.18129e-05
1.56803e-05
5.23128e-05
1.66143e-05
5.28522e-05
1.7162e-05
5.34249e-05
1.73786e-05
5.40218e-05
1.73154e-05
5.46317e-05
1.70206e-05
5.52422e-05
1.65396e-05
5.58413e-05
1.59148e-05
5.64176e-05
1.51848e-05
5.6962e-05
1.43838e-05
5.74679e-05
1.35414e-05
5.79309e-05
1.26821e-05
5.83492e-05
1.18256e-05
5.87228e-05
1.09868e-05
1.0177e-05
5.90531e-05
5.01036e-05
2.38557e-06
5.03544e-05
6.39673e-06
5.06973e-05
9.54403e-06
5.11012e-05
1.19931e-05
5.15498e-05
1.38498e-05
5.20343e-05
1.51957e-05
5.25492e-05
1.60994e-05
5.3089e-05
1.66222e-05
5.36471e-05
1.68205e-05
5.42155e-05
1.67469e-05
5.47852e-05
1.64509e-05
5.53467e-05
1.59782e-05
5.58908e-05
1.53707e-05
5.64097e-05
1.46659e-05
5.68972e-05
1.38964e-05
5.73489e-05
1.30898e-05
5.77622e-05
1.22687e-05
5.81365e-05
1.14513e-05
5.84722e-05
1.06511e-05
9.87828e-06
5.8771e-05
5.0124e-05
2.26157e-06
5.04144e-05
6.1063e-06
5.08012e-05
9.15726e-06
5.12451e-05
1.15492e-05
5.17253e-05
1.33696e-05
5.22302e-05
1.46908e-05
5.27525e-05
1.55771e-05
5.3286e-05
1.60887e-05
5.38245e-05
1.6282e-05
5.43611e-05
1.62103e-05
5.4889e-05
1.59231e-05
5.54011e-05
1.54661e-05
5.58912e-05
1.48806e-05
5.63542e-05
1.42029e-05
5.67862e-05
1.34644e-05
5.71848e-05
1.26911e-05
5.7549e-05
1.19045e-05
5.78789e-05
1.11214e-05
5.81754e-05
1.03546e-05
9.61341e-06
5.84402e-05
5.01478e-05
2.11381e-06
5.04777e-05
5.77633e-06
5.09043e-05
8.73071e-06
5.13819e-05
1.10715e-05
5.18867e-05
1.28649e-05
5.24052e-05
1.41722e-05
5.29291e-05
1.50533e-05
5.34518e-05
1.55661e-05
5.39675e-05
1.57663e-05
5.44709e-05
1.57069e-05
5.49568e-05
1.54372e-05
5.54205e-05
1.50023e-05
5.58583e-05
1.44428e-05
5.62674e-05
1.37939e-05
5.66459e-05
1.30859e-05
5.6993e-05
1.2344e-05
5.7309e-05
1.15886e-05
5.75946e-05
1.08358e-05
5.78514e-05
1.00978e-05
9.38366e-06
5.80812e-05
5.01764e-05
1.93744e-06
5.05454e-05
5.40732e-06
5.10069e-05
8.2692e-06
5.15118e-05
1.05666e-05
5.20347e-05
1.2342e-05
5.25613e-05
1.36456e-05
5.30824e-05
1.45321e-05
5.35916e-05
1.50569e-05
5.40836e-05
1.52743e-05
5.45541e-05
1.52364e-05
5.49997e-05
1.49916e-05
5.54177e-05
1.45843e-05
5.58063e-05
1.40542e-05
5.61646e-05
1.34356e-05
5.64925e-05
1.2758e-05
5.67906e-05
1.20459e-05
5.70601e-05
1.13191e-05
5.73027e-05
1.05932e-05
5.75203e-05
9.88025e-06
9.18916e-06
5.77148e-05
5.0211e-05
1.72644e-06
5.06161e-05
5.00227e-06
5.11059e-05
7.77937e-06
5.1631e-05
1.00415e-05
5.2166e-05
1.18069e-05
5.26964e-05
1.31153e-05
5.32124e-05
1.40161e-05
5.37075e-05
1.45618e-05
5.41768e-05
1.4805e-05
5.4617e-05
1.47961e-05
5.50261e-05
1.45826e-05
5.54028e-05
1.42076e-05
5.57471e-05
1.37098e-05
5.60596e-05
1.3123e-05
5.63417e-05
1.24759e-05
5.6595e-05
1.17925e-05
5.68218e-05
1.10923e-05
5.70244e-05
1.03907e-05
5.7205e-05
9.69965e-06
9.02818e-06
5.73659e-05
5.02488e-05
1.47765e-06
5.06817e-05
4.56933e-06
5.11914e-05
7.26975e-06
5.17297e-05
9.50322e-06
5.22722e-05
1.12644e-05
5.28041e-05
1.25834e-05
5.33153e-05
1.35049e-05
5.37987e-05
1.40783e-05
5.42499e-05
1.43539e-05
5.46659e-05
1.43801e-05
5.50455e-05
1.4203e-05
5.53887e-05
1.38644e-05
5.56965e-05
1.3402e-05
5.59709e-05
1.28487e-05
5.62143e-05
1.22326e-05
5.64295e-05
1.15773e-05
5.66194e-05
1.09023e-05
5.67872e-05
1.02229e-05
5.69356e-05
9.55122e-06
8.89646e-06
5.70674e-05
5.02726e-05
5.07251e-05
5.12437e-05
5.17884e-05
5.23354e-05
5.28688e-05
5.33782e-05
5.38564e-05
5.42985e-05
5.47018e-05
5.50655e-05
5.53899e-05
5.56767e-05
5.59282e-05
5.61472e-05
5.63371e-05
5.6501e-05
5.66422e-05
5.67637e-05
5.68687e-05
2.82837e-05
8.79429e-06
2.14604e-05
6.82327e-06
1.63147e-05
5.14571e-06
1.25435e-05
3.7712e-06
9.85113e-06
2.69237e-06
7.96006e-06
1.89107e-06
6.6332e-06
1.32686e-06
5.6868e-06
9.46394e-07
4.98992e-06
6.9688e-07
4.45572e-06
5.34204e-07
4.03008e-06
4.25636e-07
3.68093e-06
3.49151e-07
3.38988e-06
2.91055e-07
3.14667e-06
2.43205e-07
2.946e-06
2.00671e-07
2.78576e-06
1.60236e-07
2.66593e-06
1.19834e-07
2.5861e-06
7.98343e-08
2.53786e-06
4.82353e-08
2.53084e-08
4.18497e-05
1.13123e-05
3.83534e-05
1.03195e-05
3.44182e-05
9.08096e-06
3.04348e-05
7.75454e-06
2.66724e-05
6.45482e-06
2.32954e-05
5.26808e-06
2.03756e-05
4.24664e-06
1.7914e-05
3.40794e-06
1.58682e-05
2.74276e-06
1.41761e-05
2.22624e-06
1.27743e-05
1.82743e-06
1.16073e-05
1.51618e-06
1.06316e-05
1.26673e-06
9.81621e-06
1.05861e-06
9.14082e-06
8.76067e-07
8.59402e-06
7.07033e-07
8.17062e-06
5.43233e-07
7.86646e-06
3.83995e-07
7.6653e-06
2.49393e-07
1.64985e-07
4.85278e-05
1.22718e-05
4.68264e-05
1.20208e-05
4.44497e-05
1.14577e-05
4.15635e-05
1.06407e-05
3.83712e-05
9.64715e-06
3.5076e-05
8.56333e-06
3.18516e-05
7.47105e-06
2.88242e-05
6.43527e-06
2.6069e-05
5.498e-06
2.36168e-05
4.67842e-06
2.14672e-05
3.97702e-06
1.96017e-05
3.38168e-06
1.7995e-05
2.87349e-06
1.66224e-05
2.43116e-06
1.54648e-05
2.03365e-06
1.451e-05
1.66181e-06
1.37523e-05
1.301e-06
1.31874e-05
9.48845e-07
1.27991e-05
6.37756e-07
4.36992e-07
5.26337e-05
1.26265e-05
5.18147e-05
1.28398e-05
5.04707e-05
1.28018e-05
4.8607e-05
1.25043e-05
4.62889e-05
1.19653e-05
4.36266e-05
1.12257e-05
4.07546e-05
1.03431e-05
3.78091e-05
9.3807e-06
3.49094e-05
8.39772e-06
3.21467e-05
7.44115e-06
2.95817e-05
6.54194e-06
2.72487e-05
5.71468e-06
2.51623e-05
4.95994e-06
2.33256e-05
4.26785e-06
2.17375e-05
3.62174e-06
2.03975e-05
3.00182e-06
1.9308e-05
2.39049e-06
1.84721e-05
1.78479e-06
1.788e-05
1.22988e-06
8.52379e-07
5.53225e-05
1.26639e-05
5.49929e-05
1.31694e-05
5.42954e-05
1.34993e-05
5.31799e-05
1.36198e-05
5.1633e-05
1.35121e-05
4.96823e-05
1.31764e-05
4.73927e-05
1.26327e-05
4.4856e-05
1.19174e-05
4.21766e-05
1.10771e-05
3.94574e-05
1.01604e-05
3.67883e-05
9.21104e-06
3.42411e-05
8.26182e-06
3.18687e-05
7.33237e-06
2.97078e-05
6.42872e-06
2.77845e-05
5.54504e-06
2.61193e-05
4.66705e-06
2.4731e-05
3.77877e-06
2.3637e-05
2.87885e-06
2.28409e-05
2.02592e-06
1.41366e-06
5.7131e-05
1.25174e-05
5.70907e-05
1.32097e-05
5.67986e-05
1.37914e-05
5.61954e-05
1.42231e-05
5.52372e-05
1.44703e-05
5.39047e-05
1.45089e-05
5.22086e-05
1.43288e-05
5.01895e-05
1.39365e-05
4.79134e-05
1.33532e-05
4.54624e-05
1.26115e-05
4.29245e-05
1.17489e-05
4.03846e-05
1.08017e-05
3.79184e-05
9.79864e-06
3.55893e-05
8.75776e-06
3.34502e-05
7.6842e-06
3.15455e-05
6.57171e-06
2.99154e-05
5.40886e-06
2.85964e-05
4.1979e-06
2.76112e-05
3.01113e-06
2.11525e-06
5.83313e-05
1.22624e-05
5.84674e-05
1.30736e-05
5.84337e-05
1.38251e-05
5.81765e-05
1.44803e-05
5.76453e-05
1.50015e-05
5.68007e-05
1.53534e-05
5.56215e-05
1.5508e-05
5.41098e-05
1.54482e-05
5.22927e-05
1.51703e-05
5.02206e-05
1.46836e-05
4.79609e-05
1.40086e-05
4.55914e-05
1.31712e-05
4.31924e-05
1.21977e-05
4.08413e-05
1.11088e-05
3.86098e-05
9.91566e-06
3.65637e-05
8.61787e-06
3.4764e-05
7.20853e-06
3.32683e-05
5.69362e-06
3.2121e-05
4.15842e-06
2.9443e-06
5.90925e-05
1.19457e-05
5.93355e-05
1.28306e-05
5.94662e-05
1.36944e-05
5.94401e-05
1.45064e-05
5.92105e-05
1.52312e-05
5.87327e-05
1.58312e-05
5.79707e-05
1.627e-05
5.6903e-05
1.65159e-05
5.55276e-05
1.65457e-05
5.38643e-05
1.63469e-05
5.19542e-05
1.59186e-05
4.98562e-05
1.52692e-05
4.76415e-05
1.44123e-05
4.53883e-05
1.33621e-05
4.31767e-05
1.21273e-05
4.10863e-05
1.07083e-05
3.91952e-05
9.09956e-06
3.75801e-05
7.30873e-06
3.63068e-05
5.43171e-06
3.88207e-06
5.95291e-05
1.15983e-05
5.98334e-05
1.25263e-05
6.00658e-05
1.3462e-05
6.0191e-05
1.43811e-05
6.01691e-05
1.52531e-05
5.99578e-05
1.60425e-05
5.95169e-05
1.67109e-05
5.88133e-05
1.72196e-05
5.78262e-05
1.75327e-05
5.65524e-05
1.76208e-05
5.5008e-05
1.7463e-05
5.32296e-05
1.70476e-05
5.12717e-05
1.63702e-05
4.92031e-05
1.54307e-05
4.71023e-05
1.4228e-05
4.50543e-05
1.27563e-05
4.31477e-05
1.10062e-05
4.14734e-05
8.98306e-06
4.01154e-05
6.78968e-06
4.90555e-06
5.97221e-05
1.12412e-05
6.00569e-05
1.21915e-05
6.03479e-05
1.3171e-05
6.0568e-05
1.4161e-05
6.06847e-05
1.51364e-05
6.06609e-05
1.60663e-05
6.04579e-05
1.69139e-05
6.00391e-05
1.76385e-05
5.93739e-05
1.81978e-05
5.84438e-05
1.8551e-05
5.72456e-05
1.86612e-05
5.57951e-05
1.84981e-05
5.41277e-05
1.80376e-05
5.22972e-05
1.72612e-05
5.03732e-05
1.6152e-05
4.84377e-05
1.46918e-05
4.65826e-05
1.28613e-05
4.49066e-05
1.0659e-05
4.35068e-05
8.18951e-06
5.98927e-06
5.97312e-05
1.0889e-05
6.00749e-05
1.18478e-05
6.03945e-05
1.28515e-05
6.06692e-05
1.38862e-05
6.08733e-05
1.49323e-05
6.0976e-05
1.59637e-05
6.09427e-05
1.69471e-05
6.07378e-05
1.78434e-05
6.03276e-05
1.8608e-05
5.96848e-05
1.91938e-05
5.87933e-05
1.95527e-05
5.76523e-05
1.9639e-05
5.62794e-05
1.94105e-05
5.47116e-05
1.8829e-05
5.30051e-05
1.78585e-05
5.12331e-05
1.64637e-05
4.94838e-05
1.46106e-05
4.78571e-05
1.22857e-05
4.64564e-05
9.59021e-06
7.10714e-06
5.96014e-05
1.0552e-05
5.99389e-05
1.15103e-05
6.02655e-05
1.25248e-05
6.05658e-05
1.35859e-05
6.08197e-05
1.46785e-05
6.10022e-05
1.57811e-05
6.10842e-05
1.68651e-05
6.10333e-05
1.78942e-05
6.08165e-05
1.88248e-05
6.04035e-05
1.96069e-05
5.97704e-05
2.01858e-05
5.89049e-05
2.05045e-05
5.78099e-05
2.05055e-05
5.65068e-05
2.01321e-05
5.50367e-05
1.93287e-05
5.34603e-05
1.80401e-05
5.18567e-05
1.62141e-05
5.03209e-05
1.38215e-05
4.89559e-05
1.09552e-05
8.23402e-06
5.93675e-05
1.02376e-05
5.96881e-05
1.11897e-05
6.00065e-05
1.22064e-05
6.03112e-05
1.32812e-05
6.05869e-05
1.44028e-05
6.0814e-05
1.5554e-05
6.09685e-05
1.67106e-05
6.10227e-05
1.78401e-05
6.09464e-05
1.89011e-05
6.07094e-05
1.98438e-05
6.0285e-05
2.06103e-05
5.96536e-05
2.11359e-05
5.88077e-05
2.13514e-05
5.77553e-05
2.11845e-05
5.65231e-05
2.05609e-05
5.51576e-05
1.94056e-05
5.37256e-05
1.76462e-05
5.23118e-05
1.52353e-05
5.10128e-05
1.22542e-05
9.34715e-06
5.90579e-05
9.95066e-06
5.93538e-05
1.08938e-05
5.96529e-05
1.19073e-05
5.99467e-05
1.29873e-05
6.02238e-05
1.41257e-05
6.0469e-05
1.53089e-05
6.06632e-05
1.65165e-05
6.07833e-05
1.77199e-05
6.08034e-05
1.8881e-05
6.06957e-05
1.99516e-05
6.04332e-05
2.08727e-05
5.99933e-05
2.15757e-05
5.93617e-05
2.19831e-05
5.85361e-05
2.201e-05
5.75308e-05
2.15663e-05
5.63781e-05
2.05582e-05
5.51305e-05
1.88938e-05
5.3859e-05
1.65068e-05
5.26491e-05
1.34641e-05
1.04272e-05
5.8696e-05
9.69488e-06
5.8962e-05
1.06279e-05
5.9234e-05
1.16353e-05
5.95061e-05
1.27152e-05
5.97697e-05
1.3862e-05
6.00135e-05
1.50651e-05
6.02225e-05
1.63074e-05
6.03785e-05
1.75639e-05
6.04597e-05
1.87998e-05
6.0442e-05
1.99692e-05
6.03005e-05
2.10142e-05
6.00121e-05
2.18642e-05
5.95586e-05
2.24365e-05
5.89313e-05
2.26374e-05
5.81337e-05
2.23638e-05
5.71857e-05
2.15062e-05
5.61245e-05
1.9955e-05
5.50056e-05
1.76257e-05
5.38998e-05
1.45699e-05
1.14593e-05
5.83037e-05
9.47232e-06
5.85364e-05
1.03953e-05
5.87762e-05
1.13954e-05
5.90192e-05
1.24723e-05
5.92591e-05
1.36221e-05
5.94876e-05
1.48366e-05
5.96937e-05
1.61014e-05
5.98631e-05
1.73946e-05
5.99784e-05
1.86845e-05
6.00197e-05
1.99279e-05
5.99652e-05
2.10688e-05
5.97929e-05
2.20364e-05
5.94839e-05
2.27455e-05
5.90247e-05
2.30966e-05
5.84113e-05
2.29771e-05
5.76523e-05
2.22653e-05
5.67705e-05
2.08368e-05
5.58048e-05
1.85914e-05
5.48098e-05
1.55649e-05
1.24336e-05
5.79034e-05
9.2837e-06
5.81011e-05
1.01975e-05
5.83062e-05
1.11903e-05
5.85159e-05
1.22626e-05
5.87261e-05
1.34119e-05
5.8931e-05
1.46317e-05
5.91224e-05
1.59099e-05
5.929e-05
1.7227e-05
5.94204e-05
1.85541e-05
5.94974e-05
1.98509e-05
5.9503e-05
2.10633e-05
5.94175e-05
2.21218e-05
5.92225e-05
2.29406e-05
5.89022e-05
2.34168e-05
5.8447e-05
2.34323e-05
5.78559e-05
2.28564e-05
5.71386e-05
2.15541e-05
5.63173e-05
1.94127e-05
5.54312e-05
1.6451e-05
1.33458e-05
5.75219e-05
9.12774e-06
5.76856e-05
1.00338e-05
5.78562e-05
1.10197e-05
5.80321e-05
1.20867e-05
5.82108e-05
1.32332e-05
5.83884e-05
1.44541e-05
5.85595e-05
1.57388e-05
5.87166e-05
1.70699e-05
5.88497e-05
1.8421e-05
5.89465e-05
1.97541e-05
5.89921e-05
2.10176e-05
5.897e-05
2.2144e-05
5.88625e-05
2.3048e-05
5.86533e-05
2.36261e-05
5.83285e-05
2.37571e-05
5.78794e-05
2.33055e-05
5.73039e-05
2.21296e-05
5.66085e-05
2.01081e-05
5.58192e-05
1.72403e-05
1.41974e-05
5.71946e-05
9.00051e-06
5.7328e-05
9.90035e-06
5.74676e-05
1.08801e-05
5.76129e-05
1.19414e-05
5.77627e-05
1.30834e-05
5.79149e-05
1.43019e-05
5.8066e-05
1.55877e-05
5.82108e-05
1.69252e-05
5.83419e-05
1.82898e-05
5.84498e-05
1.96462e-05
5.85223e-05
2.09451e-05
5.85453e-05
2.21211e-05
5.85024e-05
2.30909e-05
5.83768e-05
2.37517e-05
5.81518e-05
2.39821e-05
5.78126e-05
2.36447e-05
5.73471e-05
2.25951e-05
5.67468e-05
2.07085e-05
5.60298e-05
1.79573e-05
1.49962e-05
5.69702e-05
5.70797e-05
5.71976e-05
5.73237e-05
5.7457e-05
5.75959e-05
5.77375e-05
5.78775e-05
5.80098e-05
5.81264e-05
5.82167e-05
5.82678e-05
5.82642e-05
5.81889e-05
5.80236e-05
5.77497e-05
5.73489e-05
5.68074e-05
5.60925e-05
)
;

boundaryField
{
    zeroGradientPlanes
    {
        type            calculated;
        value           nonuniform List<scalar> 
80
(
-1.44598e-06
-4.95303e-06
-8.20388e-06
-1.10651e-05
-1.35407e-05
-1.56705e-05
-1.74994e-05
-1.90631e-05
-2.03819e-05
-2.14577e-05
-2.22739e-05
-2.27971e-05
-2.29808e-05
-2.27692e-05
-2.21033e-05
-2.09285e-05
-1.91993e-05
-1.68748e-05
-1.39163e-05
-1.03627e-05
2.51255e-06
7.52562e-06
1.25271e-05
1.74646e-05
2.22796e-05
2.69096e-05
3.12919e-05
3.53691e-05
3.9092e-05
4.24231e-05
4.53386e-05
4.78291e-05
4.98997e-05
5.15691e-05
5.28677e-05
5.38355e-05
5.4519e-05
5.49676e-05
5.5231e-05
5.51302e-05
1.20506e-06
4.11685e-06
6.75113e-06
8.95846e-06
1.07175e-05
1.205e-05
1.29955e-05
1.36002e-05
1.39118e-05
1.39768e-05
1.38393e-05
1.354e-05
1.31152e-05
1.25972e-05
1.20135e-05
1.13875e-05
1.07384e-05
1.00817e-05
9.4297e-06
8.79143e-06
8.899e-06
9.79088e-06
1.07622e-05
1.18153e-05
1.29501e-05
1.4163e-05
1.54462e-05
1.67852e-05
1.81575e-05
1.95296e-05
2.08548e-05
2.20701e-05
2.30944e-05
2.3827e-05
2.41474e-05
2.39187e-05
2.29958e-05
2.12499e-05
1.86722e-05
1.59586e-05
)
;
    }
    inlet
    {
        type            calculated;
        value           nonuniform List<scalar> 
20
(
-5e-05
-5e-05
-5e-05
-5e-05
-5e-05
-5e-05
-5e-05
-5e-05
-5e-05
-5e-05
-5e-05
-5e-05
-5e-05
-5e-05
-5e-05
-5e-05
-5e-05
-5e-05
-5e-05
-5e-05
)
;
    }
    plate
    {
        type            calculated;
        value           uniform 0;
    }
    frontAndBack
    {
        type            empty;
        value           nonuniform List<scalar> 0();
    }
}


// ************************************************************************* //
