/*--------------------------------*- C++ -*----------------------------------*\
| =========                 |                                                 |
| \\      /  F ield         | OpenFOAM: The Open Source CFD Toolbox           |
|  \\    /   O peration     | Version:  v2012                                 |
|   \\  /    A nd           | Website:  www.openfoam.com                      |
|    \\/     M anipulation  |                                                 |
\*---------------------------------------------------------------------------*/
FoamFile
{
    version     2.0;
    format      ascii;
    class       volVectorField;
    location    "0.6";
    object      U;
}
// * * * * * * * * * * * * * * * * * * * * * * * * * * * * * * * * * * * * * //

dimensions      [0 1 -1 0 0 0 0];


internalField   nonuniform List<vector> 
800
(
(0.997911 0.0158009 0)
(0.989606 0.0563023 0)
(0.978972 0.100167 0)
(0.967953 0.146134 0)
(0.956999 0.193917 0)
(0.946238 0.243654 0)
(0.93574 0.29563 0)
(0.925522 0.350081 0)
(0.915561 0.407032 0)
(0.905799 0.466137 0)
(0.896147 0.526504 0)
(0.886474 0.586536 0)
(0.876612 0.643766 0)
(0.86636 0.694727 0)
(0.855405 0.734834 0)
(0.842921 0.758394 0)
(0.827668 0.758754 0)
(0.811533 0.728334 0)
(0.80254 0.657691 0)
(0.784388 0.535243 0)
(0.998233 0.0188747 0)
(0.990644 0.0615519 0)
(0.980565 0.106515 0)
(0.970098 0.15321 0)
(0.959775 0.201572 0)
(0.949796 0.251829 0)
(0.940311 0.304305 0)
(0.931445 0.359253 0)
(0.923331 0.416704 0)
(0.916138 0.476306 0)
(0.910089 0.537164 0)
(0.905465 0.597687 0)
(0.902583 0.655474 0)
(0.901736 0.707261 0)
(0.90303 0.748966 0)
(0.906059 0.775926 0)
(0.909696 0.783436 0)
(0.91259 0.767226 0)
(0.912889 0.722751 0)
(0.902854 0.644848 0)
(0.998672 0.0217302 0)
(0.992228 0.0668539 0)
(0.983197 0.113018 0)
(0.973787 0.160389 0)
(0.96465 0.209157 0)
(0.956097 0.259633 0)
(0.948396 0.312136 0)
(0.941815 0.366863 0)
(0.936659 0.423742 0)
(0.933294 0.482271 0)
(0.932131 0.541364 0)
(0.933587 0.599228 0)
(0.937987 0.653325 0)
(0.945436 0.700442 0)
(0.955642 0.736936 0)
(0.967746 0.759165 0)
(0.98025 0.76412 0)
(0.991082 0.750074 0)
(0.997489 0.716918 0)
(0.99587 0.666643 0)
(0.999059 0.0237687 0)
(0.993888 0.0709812 0)
(0.986275 0.118165 0)
(0.978338 0.166004 0)
(0.970823 0.21489 0)
(0.964152 0.265176 0)
(0.958701 0.317133 0)
(0.954852 0.370848 0)
(0.953019 0.426094 0)
(0.953641 0.482187 0)
(0.957137 0.537879 0)
(0.963822 0.591313 0)
(0.973793 0.640083 0)
(0.986804 0.681438 0)
(1.00216 0.712615 0)
(1.01865 0.731282 0)
(1.03468 0.735996 0)
(1.04836 0.726563 0)
(1.05777 0.704197 0)
(1.06128 0.671518 0)
(0.999362 0.0252494 0)
(0.995447 0.0742012 0)
(0.989468 0.122239 0)
(0.98329 0.170373 0)
(0.977691 0.219133 0)
(0.973168 0.268882 0)
(0.970173 0.319822 0)
(0.969145 0.371916 0)
(0.970523 0.424791 0)
(0.974713 0.477639 0)
(0.982023 0.529167 0)
(0.992566 0.577626 0)
(1.00617 0.62095 0)
(1.02229 0.657 0)
(1.03999 0.683881 0)
(1.05803 0.700279 0)
(1.07496 0.705716 0)
(1.08936 0.70067 0)
(1.10005 0.686516 0)
(1.10629 0.665313 0)
(0.999596 0.0263054 0)
(0.996862 0.0766178 0)
(0.992594 0.125298 0)
(0.988318 0.173533 0)
(0.984776 0.221927 0)
(0.982494 0.270831 0)
(0.981944 0.320367 0)
(0.983567 0.370391 0)
(0.987759 0.42043 0)
(0.994826 0.469631 0)
(1.00492 0.516766 0)
(1.01794 0.560313 0)
(1.03351 0.598626 0)
(1.05093 0.630161 0)
(1.06924 0.653727 0)
(1.0873 0.668691 0)
(1.10399 0.675086 0)
(1.1183 0.673595 0)
(1.12955 0.66542 0)
(1.13736 0.65207 0)
(0.99978 0.0269867 0)
(0.998122 0.0782328 0)
(0.995543 0.12729 0)
(0.99319 0.175405 0)
(0.991715 0.223207 0)
(0.99162 0.271012 0)
(0.993352 0.318869 0)
(0.997303 0.366559 0)
(1.00379 0.413563 0)
(1.01299 0.459055 0)
(1.0249 0.501953 0)
(1.03928 0.541015 0)
(1.05564 0.575009 0)
(1.07323 0.602892 0)
(1.09118 0.62398 0)
(1.10857 0.638051 0)
(1.12453 0.645364 0)
(1.13839 0.646599 0)
(1.14973 0.642724 0)
(1.15838 0.634843 0)
(0.999924 0.0273383 0)
(0.999231 0.0790789 0)
(0.998256 0.128221 0)
(0.997758 0.175995 0)
(0.998261 0.223011 0)
(1.0002 0.269536 0)
(1.00396 0.315563 0)
(1.00985 0.360828 0)
(1.01809 0.404813 0)
(1.02875 0.446776 0)
(1.04171 0.485814 0)
(1.05664 0.52097 0)
(1.07299 0.551369 0)
(1.0901 0.57635 0)
(1.10721 0.595566 0)
(1.12359 0.609026 0)
(1.13861 0.617073 0)
(1.15182 0.62031 0)
(1.16296 0.619505 0)
(1.17193 0.615483 0)
(1.00004 0.0274055 0)
(1.0002 0.0792176 0)
(1.00071 0.128154 0)
(1.00194 0.17538 0)
(1.00427 0.221454 0)
(1.00803 0.266593 0)
(1.01351 0.310743 0)
(1.02095 0.353623 0)
(1.03046 0.394755 0)
(1.04203 0.433504 0)
(1.05545 0.469153 0)
(1.07035 0.500999 0)
(1.08623 0.528453 0)
(1.1025 0.55113 0)
(1.11853 0.5689 0)
(1.13377 0.581892 0)
(1.14776 0.590465 0)
(1.1602 0.595137 0)
(1.17091 0.596519 0)
(1.17985 0.595244 0)
(1.00013 0.0272271 0)
(1.00106 0.0787169 0)
(1.00291 0.127173 0)
(1.00572 0.173666 0)
(1.00968 0.218686 0)
(1.01501 0.262394 0)
(1.02192 0.304702 0)
(1.03054 0.345334 0)
(1.04091 0.383864 0)
(1.05294 0.419775 0)
(1.06639 0.452523 0)
(1.0809 0.481615 0)
(1.09603 0.50668 0)
(1.11126 0.527525 0)
(1.12611 0.544154 0)
(1.14017 0.556757 0)
(1.1531 0.565679 0)
(1.16469 0.571362 0)
(1.17483 0.574301 0)
(1.18351 0.57499 0)
(1.00021 0.0268341 0)
(1.00182 0.0776406 0)
(1.00489 0.125366 0)
(1.00912 0.170972 0)
(1.0145 0.214866 0)
(1.02117 0.257152 0)
(1.02921 0.297714 0)
(1.03868 0.33629 0)
(1.04956 0.372517 0)
(1.06172 0.405985 0)
(1.07491 0.4363 0)
(1.0888 0.463133 0)
(1.10301 0.486275 0)
(1.11712 0.505662 0)
(1.13077 0.521381 0)
(1.14364 0.53365 0)
(1.15549 0.542788 0)
(1.16619 0.549177 0)
(1.17566 0.553221 0)
(1.1839 0.555324 0)
(1.00028 0.0262483 0)
(1.00251 0.0760435 0)
(1.0067 0.122819 0)
(1.01217 0.167416 0)
(1.0188 0.210152 0)
(1.02656 0.251066 0)
(1.03547 0.290022 0)
(1.04552 0.32677 0)
(1.05664 0.361007 0)
(1.06867 0.392419 0)
(1.0814 0.420729 0)
(1.09452 0.445737 0)
(1.10772 0.467347 0)
(1.12069 0.485583 0)
(1.13313 0.500578 0)
(1.14483 0.512562 0)
(1.15562 0.521828 0)
(1.16539 0.528707 0)
(1.17411 0.533542 0)
(1.1818 0.536666 0)
(1.00036 0.0254817 0)
(1.00318 0.0739683 0)
(1.00838 0.119609 0)
(1.01497 0.163112 0)
(1.02264 0.204691 0)
(1.03129 0.244319 0)
(1.04084 0.281833 0)
(1.05124 0.316998 0)
(1.06238 0.349559 0)
(1.07412 0.379279 0)
(1.08624 0.405973 0)
(1.0985 0.429533 0)
(1.11066 0.449943 0)
(1.12248 0.467283 0)
(1.13374 0.481715 0)
(1.14429 0.493467 0)
(1.15401 0.50281 0)
(1.16285 0.510037 0)
(1.17078 0.515443 0)
(1.17783 0.519312 0)
(1.00044 0.0245347 0)
(1.00386 0.0714422 0)
(1.01 0.115798 0)
(1.01757 0.158157 0)
(1.02613 0.198614 0)
(1.03548 0.237066 0)
(1.04548 0.273321 0)
(1.05604 0.307151 0)
(1.06705 0.338338 0)
(1.07835 0.366704 0)
(1.08978 0.39213 0)
(1.10114 0.414574 0)
(1.11225 0.434072 0)
(1.12293 0.450738 0)
(1.13303 0.46475 0)
(1.14245 0.476331 0)
(1.15113 0.485733 0)
(1.15902 0.493219 0)
(1.16613 0.49905 0)
(1.17248 0.503473 0)
(1.00055 0.023395 0)
(1.00458 0.0684798 0)
(1.01161 0.11144 0)
(1.02006 0.152642 0)
(1.02936 0.192036 0)
(1.03924 0.22944 0)
(1.04953 0.264625 0)
(1.06012 0.297364 0)
(1.07087 0.327464 0)
(1.08165 0.354786 0)
(1.09234 0.379257 0)
(1.10277 0.400877 0)
(1.11284 0.419717 0)
(1.1224 0.43591 0)
(1.13138 0.449639 0)
(1.13971 0.461119 0)
(1.14736 0.470587 0)
(1.15431 0.478284 0)
(1.16058 0.484444 0)
(1.1662 0.489291 0)
(1.0007 0.0220414 0)
(1.00539 0.065096 0)
(1.01327 0.106598 0)
(1.02248 0.146663 0)
(1.03238 0.185077 0)
(1.04265 0.221569 0)
(1.05311 0.25587 0)
(1.0636 0.287747 0)
(1.07402 0.317021 0)
(1.08424 0.343578 0)
(1.09417 0.367373 0)
(1.10369 0.388432 0)
(1.11274 0.406842 0)
(1.12123 0.422744 0)
(1.12913 0.436321 0)
(1.1364 0.447781 0)
(1.14304 0.457345 0)
(1.14906 0.465236 0)
(1.15449 0.471672 0)
(1.15936 0.476855 0)
(1.0009 0.0204368 0)
(1.00633 0.0613021 0)
(1.01499 0.101337 0)
(1.02483 0.140321 0)
(1.03519 0.177857 0)
(1.04574 0.213578 0)
(1.05626 0.247176 0)
(1.06659 0.278405 0)
(1.07664 0.307092 0)
(1.08629 0.333135 0)
(1.09548 0.356501 0)
(1.10414 0.377227 0)
(1.11222 0.395408 0)
(1.11971 0.411184 0)
(1.12658 0.424734 0)
(1.13285 0.436254 0)
(1.13853 0.445954 0)
(1.14366 0.454044 0)
(1.14826 0.460727 0)
(1.15238 0.466196 0)
(1.00118 0.0184623 0)
(1.00738 0.0569903 0)
(1.0167 0.0955739 0)
(1.02704 0.133545 0)
(1.03773 0.170302 0)
(1.04844 0.205389 0)
(1.05895 0.238458 0)
(1.0691 0.26925 0)
(1.07878 0.297585 0)
(1.0879 0.323361 0)
(1.09641 0.346547 0)
(1.10429 0.367174 0)
(1.11151 0.385333 0)
(1.11809 0.401157 0)
(1.12404 0.414813 0)
(1.1294 0.426488 0)
(1.1342 0.436381 0)
(1.13849 0.44469 0)
(1.14232 0.451611 0)
(1.14573 0.45733 0)
(1.0015 0.0158906 0)
(1.00844 0.0519094 0)
(1.01824 0.0890275 0)
(1.02891 0.126005 0)
(1.0398 0.162026 0)
(1.05061 0.196551 0)
(1.06109 0.229201 0)
(1.07108 0.259701 0)
(1.08046 0.287865 0)
(1.08915 0.31358 0)
(1.09713 0.336807 0)
(1.10437 0.357566 0)
(1.11089 0.375932 0)
(1.11672 0.39202 0)
(1.1219 0.405979 0)
(1.12648 0.417977 0)
(1.13053 0.428197 0)
(1.1341 0.436822 0)
(1.13726 0.444034 0)
(1.14005 0.45001 0)
(1.00173 0.0132341 0)
(1.00913 0.0471614 0)
(1.01919 0.0831054 0)
(1.03002 0.119271 0)
(1.04103 0.154678 0)
(1.0519 0.188723 0)
(1.06238 0.221004 0)
(1.0723 0.251241 0)
(1.08154 0.279241 0)
(1.09002 0.304889 0)
(1.09771 0.328139 0)
(1.1046 0.349003 0)
(1.11072 0.367544 0)
(1.11611 0.383865 0)
(1.12081 0.3981 0)
(1.1249 0.410404 0)
(1.12843 0.420941 0)
(1.13148 0.429883 0)
(1.13409 0.437402 0)
(1.13635 0.443665 0)
(0.638781 0.34947 0)
(0.492876 0.221148 0)
(0.370426 0.134968 0)
(0.281583 0.0795007 0)
(0.218869 0.0450857 0)
(0.174576 0.0246809 0)
(0.143433 0.0132124 0)
(0.121436 0.00711648 0)
(0.105522 0.00403668 0)
(0.0935599 0.00252707 0)
(0.08419 0.00177114 0)
(0.0765913 0.00134948 0)
(0.0702875 0.00106811 0)
(0.0650104 0.000846251 0)
(0.0606152 0.000652467 0)
(0.0570349 0.000474045 0)
(0.0542577 0.000305797 0)
(0.0522957 0.000154393 0)
(0.0510317 5.97693e-05 0)
(0.0504662 -1.33679e-05 0)
(0.866166 0.533957 0)
(0.804404 0.419759 0)
(0.727361 0.316034 0)
(0.646364 0.229469 0)
(0.568062 0.161641 0)
(0.496352 0.111479 0)
(0.433413 0.0761972 0)
(0.379875 0.0523149 0)
(0.3352 0.0365226 0)
(0.298241 0.0261371 0)
(0.267682 0.0192093 0)
(0.242308 0.0144374 0)
(0.221126 0.0110042 0)
(0.203397 0.00841403 0)
(0.188621 0.00636686 0)
(0.17649 0.00467828 0)
(0.166861 0.0032394 0)
(0.159679 0.00202248 0)
(0.154657 0.00114644 0)
(0.15187 0.000628276 0)
(0.983004 0.602604 0)
(0.956312 0.528408 0)
(0.914744 0.448497 0)
(0.860995 0.369212 0)
(0.799079 0.295649 0)
(0.733236 0.231304 0)
(0.66733 0.177835 0)
(0.604396 0.135252 0)
(0.546418 0.102431 0)
(0.494389 0.0776828 0)
(0.448535 0.0592127 0)
(0.408601 0.0454065 0)
(0.374099 0.0349594 0)
(0.344504 0.0268863 0)
(0.319363 0.020474 0)
(0.298361 0.0152226 0)
(0.281337 0.0108073 0)
(0.268243 0.0070979 0)
(0.258725 0.00428299 0)
(0.253001 0.00264159 0)
(1.05804 0.630695 0)
(1.04659 0.581033 0)
(1.02491 0.522944 0)
(0.99246 0.459602 0)
(0.950023 0.394646 0)
(0.899468 0.3316 0)
(0.843362 0.273355 0)
(0.784518 0.221827 0)
(0.725557 0.177889 0)
(0.668607 0.141505 0)
(0.615173 0.112003 0)
(0.566166 0.0883648 0)
(0.522027 0.0694771 0)
(0.482891 0.0542908 0)
(0.448747 0.0419057 0)
(0.419559 0.0316026 0)
(0.395351 0.0228665 0)
(0.37623 0.0154589 0)
(0.361917 0.00963296 0)
(0.352843 0.00608564 0)
(1.10802 0.638367 0)
(1.10465 0.60454 0)
(1.09455 0.563013 0)
(1.07642 0.514912 0)
(1.04959 0.462097 0)
(1.01423 0.406913 0)
(0.971294 0.351852 0)
(0.922437 0.299186 0)
(0.869695 0.250676 0)
(0.815206 0.207423 0)
(0.760934 0.169861 0)
(0.708509 0.137867 0)
(0.659161 0.110932 0)
(0.613759 0.0883337 0)
(0.572899 0.0692909 0)
(0.53702 0.0530676 0)
(0.506508 0.0390753 0)
(0.481778 0.0270215 0)
(0.462767 0.0172477 0)
(0.450209 0.0109992 0)
(1.14198 0.634412 0)
(1.14328 0.611459 0)
(1.14016 0.582132 0)
(1.13135 0.546551 0)
(1.11576 0.505401 0)
(1.09273 0.459904 0)
(1.06217 0.411705 0)
(1.02462 0.362655 0)
(0.981191 0.31456 0)
(0.933416 0.268956 0)
(0.883053 0.22695 0)
(0.831869 0.189158 0)
(0.781487 0.155739 0)
(0.7333 0.126485 0)
(0.688454 0.100948 0)
(0.647901 0.0785733 0)
(0.612476 0.0588456 0)
(0.583002 0.0415102 0)
(0.559746 0.0270487 0)
(0.543821 0.0173705 0)
(1.16465 0.623602 0)
(1.16875 0.608275 0)
(1.16997 0.587854 0)
(1.16723 0.562024 0)
(1.15946 0.530816 0)
(1.14574 0.494671 0)
(1.12542 0.454451 0)
(1.0983 0.411368 0)
(1.0647 0.366846 0)
(1.0254 0.322347 0)
(0.98164 0.279186 0)
(0.934903 0.238387 0)
(0.886806 0.200612 0)
(0.838948 0.166147 0)
(0.792829 0.134957 0)
(0.749811 0.106788 0)
(0.711159 0.0813194 0)
(0.678124 0.0584294 0)
(0.651356 0.0388032 0)
(0.632414 0.025107 0)
(1.1791 0.608771 0)
(1.18483 0.598895 0)
(1.18873 0.58501 0)
(1.18994 0.566638 0)
(1.18753 0.543484 0)
(1.18056 0.515519 0)
(1.1682 0.483033 0)
(1.14984 0.446656 0)
(1.12525 0.407312 0)
(1.09459 0.366129 0)
(1.0585 0.324303 0)
(1.01801 0.282951 0)
(0.974461 0.242987 0)
(0.929366 0.205045 0)
(0.884333 0.169457 0)
(0.840966 0.136293 0)
(0.800847 0.10549 0)
(0.7656 0.0771305 0)
(0.736245 0.0521549 0)
(0.714815 0.0340456 0)
(1.18741 0.591771 0)
(1.19403 0.585839 0)
(1.19953 0.576775 0)
(1.20325 0.564067 0)
(1.20443 0.547282 0)
(1.20223 0.52613 0)
(1.1958 0.500536 0)
(1.18439 0.470686 0)
(1.16743 0.437048 0)
(1.14467 0.400342 0)
(1.11625 0.361476 0)
(1.08269 0.321432 0)
(1.04494 0.281155 0)
(1.00426 0.241439 0)
(0.962142 0.202858 0)
(0.920239 0.165759 0)
(0.8803 0.130334 0)
(0.844213 0.096895 0)
(0.813287 0.0666688 0)
(0.790031 0.0439708 0)
(1.19109 0.573854 0)
(1.19809 0.570795 0)
(1.20445 0.565302 0)
(1.20968 0.556883 0)
(1.21318 0.545064 0)
(1.21424 0.529433 0)
(1.21209 0.509701 0)
(1.20596 0.48575 0)
(1.19514 0.45769 0)
(1.17914 0.425863 0)
(1.15772 0.390837 0)
(1.131 0.353343 0)
(1.09951 0.31419 0)
(1.06415 0.274167 0)
(1.02618 0.233951 0)
(0.987145 0.194065 0)
(0.948792 0.154908 0)
(0.913134 0.117007 0)
(0.881654 0.0818739 0)
(0.857302 0.0546333 0)
(1.19126 0.555881 0)
(1.19828 0.554929 0)
(1.20499 0.552088 0)
(1.21103 0.546912 0)
(1.21593 0.538936 0)
(1.21912 0.527704 0)
(1.21994 0.512813 0)
(1.21766 0.49396 0)
(1.21159 0.470996 0)
(1.20107 0.443959 0)
(1.18567 0.413095 0)
(1.16521 0.378844 0)
(1.13984 0.341792 0)
(1.11012 0.302601 0)
(1.07699 0.261926 0)
(1.04177 0.220354 0)
(1.00609 0.178416 0)
(0.971946 0.136809 0)
(0.940849 0.0973029 0)
(0.916145 0.0657687 0)
(1.18877 0.538459 0)
(1.19557 0.539059 0)
(1.20227 0.538193 0)
(1.20861 0.535469 0)
(1.21425 0.530452 0)
(1.21872 0.522684 0)
(1.22148 0.511715 0)
(1.2219 0.497137 0)
(1.21932 0.47863 0)
(1.21308 0.456005 0)
(1.20262 0.429243 0)
(1.18757 0.398502 0)
(1.16781 0.364116 0)
(1.14359 0.326549 0)
(1.11553 0.28634 0)
(1.08467 0.244046 0)
(1.05241 0.200245 0)
(1.02063 0.155745 0)
(0.990723 0.112525 0)
(0.966372 0.0771149 0)
(1.18429 0.522016 0)
(1.19068 0.523765 0)
(1.19711 0.524377 0)
(1.20341 0.523507 0)
(1.20929 0.52076 0)
(1.2144 0.515698 0)
(1.21832 0.507861 0)
(1.22051 0.496789 0)
(1.22039 0.48206 0)
(1.21734 0.463329 0)
(1.21077 0.440368 0)
(1.2002 0.4131 0)
(1.18534 0.381609 0)
(1.16618 0.346139 0)
(1.14308 0.307056 0)
(1.11676 0.264817 0)
(1.08837 0.219973 0)
(1.05955 0.173379 0)
(1.03146 0.12717 0)
(1.00809 0.0884278 0)
(1.17835 0.506853 0)
(1.18421 0.509461 0)
(1.19019 0.511184 0)
(1.19617 0.511718 0)
(1.20194 0.510708 0)
(1.20723 0.507744 0)
(1.21171 0.502378 0)
(1.21495 0.494131 0)
(1.21645 0.482527 0)
(1.21566 0.467117 0)
(1.21202 0.447528 0)
(1.20502 0.42349 0)
(1.19427 0.394876 0)
(1.17959 0.361709 0)
(1.16109 0.324165 0)
(1.13924 0.282556 0)
(1.11488 0.237356 0)
(1.08938 0.189409 0)
(1.06357 0.140945 0)
(1.04168 0.0994958 0)
(1.17141 0.493184 0)
(1.17665 0.496442 0)
(1.18206 0.499004 0)
(1.18753 0.500603 0)
(1.19294 0.500917 0)
(1.19807 0.499568 0)
(1.20266 0.496126 0)
(1.20639 0.490117 0)
(1.20885 0.481037 0)
(1.20957 0.468381 0)
(1.20805 0.451674 0)
(1.2038 0.430508 0)
(1.19638 0.404578 0)
(1.18552 0.373719 0)
(1.17114 0.337917 0)
(1.15348 0.297326 0)
(1.1331 0.252307 0)
(1.11106 0.203657 0)
(1.08779 0.153645 0)
(1.06776 0.110148 0)
(1.16389 0.481149 0)
(1.16845 0.484906 0)
(1.1732 0.488106 0)
(1.17805 0.490511 0)
(1.18292 0.491828 0)
(1.18765 0.491707 0)
(1.19205 0.489742 0)
(1.19586 0.48547 0)
(1.19878 0.478384 0)
(1.20043 0.467949 0)
(1.20037 0.453626 0)
(1.19816 0.434912 0)
(1.19337 0.41137 0)
(1.18567 0.382677 0)
(1.17487 0.348654 0)
(1.16101 0.309301 0)
(1.14439 0.264858 0)
(1.12575 0.21605 0)
(1.10511 0.165133 0)
(1.08714 0.120235 0)
(1.15621 0.470812 0)
(1.16009 0.47496 0)
(1.16413 0.478651 0)
(1.1683 0.481666 0)
(1.17252 0.483736 0)
(1.1767 0.484535 0)
(1.18071 0.483679 0)
(1.18435 0.480723 0)
(1.18738 0.475166 0)
(1.18952 0.466462 0)
(1.19042 0.454041 0)
(1.18968 0.437335 0)
(1.18692 0.415818 0)
(1.18178 0.389049 0)
(1.174 0.356717 0)
(1.16345 0.31869 0)
(1.15023 0.275094 0)
(1.13477 0.226573 0)
(1.11664 0.175315 0)
(1.10077 0.129612 0)
(1.1489 0.462214 0)
(1.15211 0.466672 0)
(1.15546 0.470735 0)
(1.15894 0.474198 0)
(1.1625 0.476807 0)
(1.16608 0.478256 0)
(1.1696 0.478184 0)
(1.17292 0.476164 0)
(1.17587 0.471712 0)
(1.17822 0.464289 0)
(1.17971 0.453312 0)
(1.18 0.438185 0)
(1.17876 0.418326 0)
(1.17563 0.393217 0)
(1.1703 0.362452 0)
(1.16253 0.325796 0)
(1.15221 0.28328 0)
(1.13951 0.235465 0)
(1.12358 0.184394 0)
(1.10965 0.138435 0)
(1.14264 0.455122 0)
(1.14525 0.459799 0)
(1.14799 0.464097 0)
(1.15084 0.46783 0)
(1.1538 0.470766 0)
(1.15684 0.472627 0)
(1.15989 0.473075 0)
(1.16288 0.471713 0)
(1.16568 0.468078 0)
(1.16811 0.461645 0)
(1.16997 0.451839 0)
(1.17098 0.438047 0)
(1.17084 0.419658 0)
(1.16921 0.3961 0)
(1.16574 0.366898 0)
(1.16011 0.331736 0)
(1.15205 0.290566 0)
(1.14146 0.243873 0)
(1.12718 0.193482 0)
(1.11478 0.147787 0)
(1.13841 0.449052 0)
(1.14051 0.454017 0)
(1.14278 0.458633 0)
(1.14523 0.462724 0)
(1.14783 0.466075 0)
(1.15057 0.468422 0)
(1.15339 0.469448 0)
(1.15623 0.46877 0)
(1.15899 0.46594 0)
(1.16152 0.460442 0)
(1.16364 0.451699 0)
(1.16511 0.439089 0)
(1.16565 0.421974 0)
(1.16492 0.399743 0)
(1.16256 0.371866 0)
(1.15821 0.337968 0)
(1.15149 0.297939 0)
(1.14208 0.252207 0)
(1.12861 0.202536 0)
(1.11705 0.157406 0)
)
;

boundaryField
{
    zeroGradientPlanes
    {
        type            zeroGradient;
    }
    inlet
    {
        type            fixedValue;
        value           uniform (1 0 0);
    }
    plate
    {
        type            noSlip;
    }
    frontAndBack
    {
        type            empty;
    }
}


// ************************************************************************* //
