/*--------------------------------*- C++ -*----------------------------------*\
| =========                 |                                                 |
| \\      /  F ield         | OpenFOAM: The Open Source CFD Toolbox           |
|  \\    /   O peration     | Version:  v2012                                 |
|   \\  /    A nd           | Website:  www.openfoam.com                      |
|    \\/     M anipulation  |                                                 |
\*---------------------------------------------------------------------------*/
FoamFile
{
    version     2.0;
    format      ascii;
    class       volScalarField;
    location    "0.2";
    object      p;
}
// * * * * * * * * * * * * * * * * * * * * * * * * * * * * * * * * * * * * * //

dimensions      [0 2 -2 0 0 0 0];


internalField   nonuniform List<scalar> 
800
(
1.91092e-07
0.00606326
0.0191296
0.0344797
0.0508534
0.0681441
0.08639
0.105768
0.126619
0.149453
0.174956
0.204003
0.237672
0.277207
0.323329
0.374754
0.432163
0.518014
0.656283
0.609893
-0.0139753
-0.0106098
-9.47028e-05
0.0126569
0.0262559
0.0403695
0.0547712
0.0693088
0.0838399
0.0981246
0.111689
0.123644
0.132487
0.135936
0.130671
0.111963
0.0748603
0.0189439
-0.0547192
-0.173624
-0.0353231
-0.0346233
-0.0271067
-0.0174251
-0.00711475
0.00326428
0.0132327
0.0223328
0.0300347
0.0356295
0.0381436
0.0362876
0.0284727
0.0129205
-0.0121609
-0.0483766
-0.0968358
-0.157967
-0.232418
-0.320963
-0.0590323
-0.0595
-0.0541606
-0.0470348
-0.0396213
-0.0326011
-0.0266026
-0.0222522
-0.0202474
-0.0214174
-0.0267398
-0.0373042
-0.054221
-0.0784793
-0.110778
-0.151343
-0.199767
-0.255047
-0.31586
-0.38025
-0.0843996
-0.0852129
-0.0815488
-0.0766669
-0.0719164
-0.0680174
-0.0656545
-0.0655049
-0.0682783
-0.0747365
-0.0856668
-0.101811
-0.123759
-0.151827
-0.185935
-0.225533
-0.269576
-0.316625
-0.365026
-0.413015
-0.111133
-0.111978
-0.109724
-0.106865
-0.104552
-0.103482
-0.104318
-0.107691
-0.114216
-0.124481
-0.138999
-0.158136
-0.182028
-0.210511
-0.243083
-0.278916
-0.316927
-0.3559
-0.394616
-0.431959
-0.138774
-0.139492
-0.138427
-0.137348
-0.137184
-0.138558
-0.142049
-0.148184
-0.157427
-0.170156
-0.18662
-0.206884
-0.230788
-0.257925
-0.287655
-0.319164
-0.351538
-0.383865
-0.415324
-0.445236
-0.166894
-0.16739
-0.167315
-0.16777
-0.169446
-0.172858
-0.178464
-0.186654
-0.197727
-0.211869
-0.229118
-0.249338
-0.272208
-0.297233
-0.323787
-0.351165
-0.378659
-0.40562
-0.431512
-0.455925
-0.195154
-0.195382
-0.19613
-0.197892
-0.201113
-0.206179
-0.213411
-0.223053
-0.235251
-0.250033
-0.267288
-0.286764
-0.308073
-0.330724
-0.354165
-0.377831
-0.401196
-0.423813
-0.445335
-0.465519
-0.223282
-0.223224
-0.224662
-0.227531
-0.232034
-0.238416
-0.246855
-0.25746
-0.270246
-0.285123
-0.301886
-0.320228
-0.339759
-0.360033
-0.380595
-0.401009
-0.420898
-0.439958
-0.457969
-0.474789
-0.25105
-0.250706
-0.252734
-0.256546
-0.262108
-0.269522
-0.278833
-0.290026
-0.303011
-0.317619
-0.333595
-0.350619
-0.36833
-0.38635
-0.404315
-0.421903
-0.438848
-0.45495
-0.470074
-0.484142
-0.278262
-0.277646
-0.280197
-0.284829
-0.291278
-0.299506
-0.309435
-0.320943
-0.333866
-0.347981
-0.363016
-0.378666
-0.394613
-0.410549
-0.426197
-0.441324
-0.455751
-0.469351
-0.48205
-0.493811
-0.304743
-0.303884
-0.30693
-0.312309
-0.319526
-0.328416
-0.338786
-0.350432
-0.363131
-0.376635
-0.390673
-0.404968
-0.419256
-0.433293
-0.446878
-0.45985
-0.472095
-0.483544
-0.494163
-0.503949
-0.330328
-0.329273
-0.332837
-0.338941
-0.346867
-0.35633
-0.367039
-0.378721
-0.391118
-0.403969
-0.41702
-0.43003
-0.442785
-0.455105
-0.466849
-0.477918
-0.48825
-0.497817
-0.506619
-0.514674
-0.354829
-0.353667
-0.357825
-0.364692
-0.373329
-0.38334
-0.394353
-0.406044
-0.418128
-0.430347
-0.442468
-0.454291
-0.46565
-0.47642
-0.486516
-0.495889
-0.504518
-0.512412
-0.519595
-0.526105
-0.378016
-0.376888
-0.381775
-0.389499
-0.398903
-0.409496
-0.42084
-0.432574
-0.4444
-0.456066
-0.467365
-0.478133
-0.488248
-0.497636
-0.506256
-0.514103
-0.521195
-0.527571
-0.53328
-0.538377
-0.399649
-0.398834
-0.404672
-0.413402
-0.423666
-0.434903
-0.446631
-0.458465
-0.470108
-0.481322
-0.491925
-0.501789
-0.510834
-0.519021
-0.52635
-0.53285
-0.538569
-0.543571
-0.547927
-0.55171
-0.41962
-0.419828
-0.427074
-0.437091
-0.448396
-0.460395
-0.472589
-0.484587
-0.496098
-0.506905
-0.516857
-0.525865
-0.533889
-0.540937
-0.547047
-0.552282
-0.556718
-0.56044
-0.563529
-0.566071
-0.437431
-0.439854
-0.449161
-0.460885
-0.473561
-0.486629
-0.499605
-0.512096
-0.52381
-0.534531
-0.54412
-0.552504
-0.559672
-0.565663
-0.570553
-0.574449
-0.577474
-0.579762
-0.581446
-0.582666
-0.448926
-0.453303
-0.464078
-0.477048
-0.490788
-0.504809
-0.51867
-0.531984
-0.544448
-0.555834
-0.565983
-0.574809
-0.582282
-0.588426
-0.593303
-0.597002
-0.599628
-0.601302
-0.602146
-0.602205
-0.352787
-0.878481
-1.09292
-1.19109
-1.22625
-1.21692
-1.18276
-1.13935
-1.09557
-1.05537
-1.01998
-0.989275
-0.962654
-0.939466
-0.919227
-0.901687
-0.88687
-0.8752
-0.867706
-0.863867
-0.383711
-0.56761
-0.708848
-0.818754
-0.899449
-0.951366
-0.978998
-0.988672
-0.986249
-0.976406
-0.962558
-0.946988
-0.931107
-0.915746
-0.901417
-0.888511
-0.877428
-0.868765
-0.86369
-0.861052
-0.421109
-0.526966
-0.627198
-0.714184
-0.785004
-0.838805
-0.876491
-0.900266
-0.912891
-0.917137
-0.915477
-0.909945
-0.902109
-0.893134
-0.883894
-0.87509
-0.867349
-0.861401
-0.8587
-0.857716
-0.446962
-0.516727
-0.586981
-0.653354
-0.712709
-0.762925
-0.802971
-0.832923
-0.853691
-0.866664
-0.873406
-0.875442
-0.874138
-0.870654
-0.865967
-0.860918
-0.856271
-0.852857
-0.852452
-0.853388
-0.460607
-0.510126
-0.561732
-0.613223
-0.662336
-0.707058
-0.745875
-0.777933
-0.803045
-0.821584
-0.834307
-0.842188
-0.846263
-0.847543
-0.846969
-0.845416
-0.843709
-0.842738
-0.844558
-0.847514
-0.468421
-0.506336
-0.546443
-0.587578
-0.628323
-0.667205
-0.702886
-0.734318
-0.760853
-0.78227
-0.798741
-0.810739
-0.818933
-0.824098
-0.827044
-0.828594
-0.829569
-0.830869
-0.83475
-0.839633
-0.474239
-0.504403
-0.536577
-0.570136
-0.60421
-0.637787
-0.669822
-0.699347
-0.725594
-0.748064
-0.766571
-0.781219
-0.792355
-0.800502
-0.806299
-0.810467
-0.813773
-0.817082
-0.822775
-0.82932
-0.479515
-0.504066
-0.530394
-0.558155
-0.586817
-0.615704
-0.644042
-0.671039
-0.695963
-0.718233
-0.737475
-0.753555
-0.766571
-0.776824
-0.784775
-0.791017
-0.796233
-0.801218
-0.808404
-0.816201
-0.484982
-0.505248
-0.527055
-0.550212
-0.574392
-0.599146
-0.623922
-0.648105
-0.671071
-0.692259
-0.71123
-0.727719
-0.741657
-0.753169
-0.762557
-0.77028
-0.776921
-0.783182
-0.791482
-0.800008
-0.490979
-0.507836
-0.52601
-0.545395
-0.565786
-0.586887
-0.608307
-0.629586
-0.650221
-0.669721
-0.687656
-0.703711
-0.717721
-0.729691
-0.739795
-0.748373
-0.755902
-0.762975
-0.771958
-0.780612
-0.497655
-0.511714
-0.526879
-0.54309
-0.560219
-0.578064
-0.596353
-0.614743
-0.632844
-0.65025
-0.66658
-0.681521
-0.69487
-0.706563
-0.716685
-0.725479
-0.733324
-0.740699
-0.749899
-0.758033
-0.505078
-0.516779
-0.529388
-0.542869
-0.557137
-0.572054
-0.587422
-0.602991
-0.618462
-0.633512
-0.647822
-0.661113
-0.673187
-0.683951
-0.693437
-0.701822
-0.709403
-0.716548
-0.725479
-0.73244
-0.513286
-0.522953
-0.533341
-0.544425
-0.556142
-0.568391
-0.581028
-0.593864
-0.606671
-0.619198
-0.631192
-0.642422
-0.652718
-0.661989
-0.670252
-0.677642
-0.684395
-0.690782
-0.698963
-0.704124
-0.522317
-0.530189
-0.538605
-0.54754
-0.556942
-0.56673
-0.576791
-0.58698
-0.597123
-0.607025
-0.616492
-0.625348
-0.633462
-0.64077
-0.647295
-0.653159
-0.658562
-0.663692
-0.670666
-0.673462
-0.532228
-0.538481
-0.545106
-0.552074
-0.559334
-0.566815
-0.574421
-0.582036
-0.589521
-0.59673
-0.603516
-0.609755
-0.615364
-0.62032
-0.624671
-0.628552
-0.632144
-0.635574
-0.640939
-0.640907
-0.543104
-0.547864
-0.552828
-0.557956
-0.563193
-0.568468
-0.573697
-0.578777
-0.583601
-0.588054
-0.592037
-0.595471
-0.598324
-0.600621
-0.602453
-0.603983
-0.605394
-0.606771
-0.610207
-0.607023
-0.555122
-0.558457
-0.561821
-0.565164
-0.568426
-0.571536
-0.574415
-0.576976
-0.57913
-0.580791
-0.581891
-0.582396
-0.582319
-0.581733
-0.580781
-0.579666
-0.578589
-0.577618
-0.578857
-0.57232
-0.568231
-0.570203
-0.572028
-0.573653
-0.575013
-0.576037
-0.576639
-0.576733
-0.576232
-0.575063
-0.573179
-0.570578
-0.567316
-0.563526
-0.559415
-0.555251
-0.551275
-0.547574
-0.546259
-0.536153
-0.583585
-0.584274
-0.584647
-0.584598
-0.584026
-0.58283
-0.580918
-0.578201
-0.574608
-0.570091
-0.564644
-0.558319
-0.551248
-0.543653
-0.535847
-0.528207
-0.521054
-0.514542
-0.510471
-0.496565
-0.601379
-0.599693
-0.597327
-0.59433
-0.590641
-0.586194
-0.580931
-0.5748
-0.56776
-0.559799
-0.550951
-0.541324
-0.531122
-0.520656
-0.510342
-0.500658
-0.49201
-0.484663
-0.479149
-0.46204
)
;

boundaryField
{
    zeroGradientPlanes
    {
        type            zeroGradient;
    }
    inlet
    {
        type            zeroGradient;
    }
    plate
    {
        type            zeroGradient;
    }
    frontAndBack
    {
        type            empty;
    }
}


// ************************************************************************* //
