/*--------------------------------*- C++ -*----------------------------------*\
| =========                 |                                                 |
| \\      /  F ield         | OpenFOAM: The Open Source CFD Toolbox           |
|  \\    /   O peration     | Version:  v2012                                 |
|   \\  /    A nd           | Website:  www.openfoam.com                      |
|    \\/     M anipulation  |                                                 |
\*---------------------------------------------------------------------------*/
FoamFile
{
    version     2.0;
    format      ascii;
    class       surfaceScalarField;
    location    "0.2";
    object      phi;
}
// * * * * * * * * * * * * * * * * * * * * * * * * * * * * * * * * * * * * * //

dimensions      [0 3 -1 0 0 0 0];
oriented        oriented;


internalField   nonuniform List<scalar> 
1540
(
4.96852e-05
1.75636e-06
4.91972e-05
5.42377e-06
4.86626e-05
8.70857e-06
4.81166e-05
1.15709e-05
4.75753e-05
1.40353e-05
4.70453e-05
1.61507e-05
4.65291e-05
1.79663e-05
4.60261e-05
1.95198e-05
4.55345e-05
2.08322e-05
4.50504e-05
2.19063e-05
4.45684e-05
2.27266e-05
4.40807e-05
2.32615e-05
4.35769e-05
2.34669e-05
4.30424e-05
2.32908e-05
4.24579e-05
2.26791e-05
4.17972e-05
2.15837e-05
4.10169e-05
1.99766e-05
4.00308e-05
1.78598e-05
3.87198e-05
1.52273e-05
1.19965e-05
3.70865e-05
4.97208e-05
2.03553e-06
4.92661e-05
5.87852e-06
4.87568e-05
9.21785e-06
4.82395e-05
1.20883e-05
4.77333e-05
1.45414e-05
4.72482e-05
1.66358e-05
4.67909e-05
1.84236e-05
4.63677e-05
1.9943e-05
4.59862e-05
2.12137e-05
4.5656e-05
2.22364e-05
4.53898e-05
2.29928e-05
4.52027e-05
2.34487e-05
4.51096e-05
2.35599e-05
4.51203e-05
2.32801e-05
4.52292e-05
2.25703e-05
4.54023e-05
2.14105e-05
4.55672e-05
1.98118e-05
4.56083e-05
1.78187e-05
4.53377e-05
1.54979e-05
1.29561e-05
4.43782e-05
4.97748e-05
2.26074e-06
4.93726e-05
6.28067e-06
4.89154e-05
9.6751e-06
4.84541e-05
1.25496e-05
4.80134e-05
1.4982e-05
4.76088e-05
1.70404e-05
4.72535e-05
1.87789e-05
4.69618e-05
2.02346e-05
4.67507e-05
2.14249e-05
4.66396e-05
2.23476e-05
4.66493e-05
2.2983e-05
4.67985e-05
2.32995e-05
4.70979e-05
2.32606e-05
4.75424e-05
2.28356e-05
4.8103e-05
2.20097e-05
4.87197e-05
2.07938e-05
4.93013e-05
1.92302e-05
4.97276e-05
1.73924e-05
4.98476e-05
1.53779e-05
1.33056e-05
4.94981e-05
4.9827e-05
2.43374e-06
4.9493e-05
6.6147e-06
4.91073e-05
1.00608e-05
4.87232e-05
1.29337e-05
4.83703e-05
1.5335e-05
4.80693e-05
1.73414e-05
4.7839e-05
1.90092e-05
4.76995e-05
2.03742e-05
4.7672e-05
2.14523e-05
4.77782e-05
2.22414e-05
4.80363e-05
2.27249e-05
4.84566e-05
2.28791e-05
4.90351e-05
2.26821e-05
4.97476e-05
2.21231e-05
5.05463e-05
2.1211e-05
5.13601e-05
1.998e-05
5.2101e-05
1.84893e-05
5.26749e-05
1.68185e-05
5.29941e-05
1.50586e-05
1.33012e-05
5.29985e-05
4.98733e-05
2.56041e-06
4.9614e-05
6.87402e-06
4.93125e-05
1.03623e-05
4.90201e-05
1.3226e-05
4.8769e-05
1.55861e-05
4.85834e-05
1.7527e-05
4.84855e-05
1.91071e-05
4.84973e-05
2.03623e-05
4.864e-05
2.13096e-05
4.89314e-05
2.195e-05
4.93818e-05
2.22745e-05
4.99896e-05
2.22714e-05
5.07363e-05
2.19354e-05
5.15848e-05
2.12746e-05
5.24799e-05
2.03159e-05
5.33538e-05
1.91061e-05
5.41347e-05
1.77083e-05
5.47582e-05
1.61951e-05
5.51768e-05
1.464e-05
1.31091e-05
5.53689e-05
4.99139e-05
2.64653e-06
4.97299e-05
7.05805e-06
4.95182e-05
1.0574e-05
4.93246e-05
1.34195e-05
4.9181e-05
1.57297e-05
4.91128e-05
1.75953e-05
4.91426e-05
1.90772e-05
4.92914e-05
2.02135e-05
4.95767e-05
2.10244e-05
5.00097e-05
2.15171e-05
5.05916e-05
2.16926e-05
5.13102e-05
2.15528e-05
5.2138e-05
2.11075e-05
5.30332e-05
2.03794e-05
5.3943e-05
1.94061e-05
5.48106e-05
1.82384e-05
5.55831e-05
1.69358e-05
5.62184e-05
1.55598e-05
5.66907e-05
1.41677e-05
1.28076e-05
5.69923e-05
4.99491e-05
2.6974e-06
4.98374e-05
7.16981e-06
4.97156e-05
1.06958e-05
4.96217e-05
1.35134e-05
4.95845e-05
1.57669e-05
4.96281e-05
1.75517e-05
4.97732e-05
1.8932e-05
5.00377e-05
1.99491e-05
5.04336e-05
2.06284e-05
5.09653e-05
2.09853e-05
5.16263e-05
2.10315e-05
5.23978e-05
2.07813e-05
5.32487e-05
2.02566e-05
5.41384e-05
1.94897e-05
5.50216e-05
1.85229e-05
5.58538e-05
1.74063e-05
5.65969e-05
1.61927e-05
5.72238e-05
1.49329e-05
5.77198e-05
1.36716e-05
1.24447e-05
5.80828e-05
4.99795e-05
2.71785e-06
4.99351e-05
7.2143e-06
4.98994e-05
1.07314e-05
4.99012e-05
1.35117e-05
4.99643e-05
1.57038e-05
5.01093e-05
1.74068e-05
5.03535e-05
1.86877e-05
5.07103e-05
1.95924e-05
5.11864e-05
2.01523e-05
5.17804e-05
2.03914e-05
5.24805e-05
2.03314e-05
5.3265e-05
1.99969e-05
5.41032e-05
1.94184e-05
5.49591e-05
1.86337e-05
5.57958e-05
1.76863e-05
5.65793e-05
1.66228e-05
5.72828e-05
1.54891e-05
5.78886e-05
1.43272e-05
5.8388e-05
1.31722e-05
1.20517e-05
5.8781e-05
5.00058e-05
2.71205e-06
5.00227e-05
7.1974e-06
5.00671e-05
1.0687e-05
5.01576e-05
1.34212e-05
5.03116e-05
1.55498e-05
5.05451e-05
1.71734e-05
5.08709e-05
1.83619e-05
5.12978e-05
1.91655e-05
5.18279e-05
1.96222e-05
5.24553e-05
1.9764e-05
5.31658e-05
1.96209e-05
5.39373e-05
1.92254e-05
5.47419e-05
1.86138e-05
5.55494e-05
1.78262e-05
5.63304e-05
1.69052e-05
5.70598e-05
1.58934e-05
5.77185e-05
1.48304e-05
5.82948e-05
1.37509e-05
5.87835e-05
1.26835e-05
1.16497e-05
5.91855e-05
5.00286e-05
2.68345e-06
5.01009e-05
7.12508e-06
5.02183e-05
1.05696e-05
5.03888e-05
1.32507e-05
5.06228e-05
1.53157e-05
5.09309e-05
1.68653e-05
5.13215e-05
1.79713e-05
5.17988e-05
1.86882e-05
5.23612e-05
1.90598e-05
5.30005e-05
1.91247e-05
5.37016e-05
1.89198e-05
5.44438e-05
1.84832e-05
5.52033e-05
1.78544e-05
5.59553e-05
1.70742e-05
5.66772e-05
1.61833e-05
5.73505e-05
1.52202e-05
5.79616e-05
1.42192e-05
5.85028e-05
1.32098e-05
5.8971e-05
1.22153e-05
1.12533e-05
5.93674e-05
5.00488e-05
2.63465e-06
5.01711e-05
7.00278e-06
5.03541e-05
1.03866e-05
5.05954e-05
1.30094e-05
5.08982e-05
1.50129e-05
5.12675e-05
1.6496e-05
5.17073e-05
1.75316e-05
5.22182e-05
1.81773e-05
5.2796e-05
1.84819e-05
5.34314e-05
1.84893e-05
5.41098e-05
1.82415e-05
5.4813e-05
1.778e-05
5.55212e-05
1.71462e-05
5.62149e-05
1.63805e-05
5.6877e-05
1.55212e-05
5.74938e-05
1.46033e-05
5.8056e-05
1.36571e-05
5.85583e-05
1.27075e-05
5.89991e-05
1.17745e-05
1.08727e-05
5.93797e-05
5.00673e-05
2.56737e-06
5.02351e-05
6.83496e-06
5.04768e-05
1.01448e-05
5.07801e-05
1.27061e-05
5.11408e-05
1.46521e-05
5.15589e-05
1.60779e-05
5.20343e-05
1.70561e-05
5.2565e-05
1.76466e-05
5.31452e-05
1.79017e-05
5.37654e-05
1.78692e-05
5.44123e-05
1.75945e-05
5.50708e-05
1.71215e-05
5.5725e-05
1.6492e-05
5.63598e-05
1.57456e-05
5.69625e-05
1.49185e-05
5.75234e-05
1.40425e-05
5.80359e-05
1.31445e-05
5.84969e-05
1.22466e-05
5.89055e-05
1.13659e-05
1.05149e-05
5.92632e-05
5.00851e-05
2.48226e-06
5.02952e-05
6.62489e-06
5.05897e-05
9.85027e-06
5.09467e-05
1.23492e-05
5.13554e-05
1.42434e-05
5.18112e-05
1.56221e-05
5.23109e-05
1.65564e-05
5.28503e-05
1.71072e-05
5.3423e-05
1.7329e-05
5.40199e-05
1.72723e-05
5.46299e-05
1.69846e-05
5.52405e-05
1.65108e-05
5.58396e-05
1.58929e-05
5.64159e-05
1.51693e-05
5.69603e-05
1.43741e-05
5.7466e-05
1.35367e-05
5.79288e-05
1.26817e-05
5.83467e-05
1.18287e-05
5.87199e-05
1.09928e-05
1.01852e-05
5.90496e-05
5.01035e-05
2.37876e-06
5.03539e-05
6.37452e-06
5.06963e-05
9.50787e-06
5.10996e-05
1.19459e-05
5.15475e-05
1.37955e-05
5.20315e-05
1.51381e-05
5.25459e-05
1.6042e-05
5.30853e-05
1.65678e-05
5.36432e-05
1.67711e-05
5.42115e-05
1.6704e-05
5.47811e-05
1.6415e-05
5.53425e-05
1.59494e-05
5.58865e-05
1.53489e-05
5.64054e-05
1.46505e-05
5.68927e-05
1.38868e-05
5.73442e-05
1.30853e-05
5.77573e-05
1.22686e-05
5.81313e-05
1.14547e-05
5.84667e-05
1.06574e-05
9.88685e-06
5.8765e-05
5.01238e-05
2.25494e-06
5.04137e-05
6.08464e-06
5.07997e-05
9.12186e-06
5.12427e-05
1.15029e-05
5.1722e-05
1.33162e-05
5.22261e-05
1.4634e-05
5.27477e-05
1.55204e-05
5.32805e-05
1.60349e-05
5.38185e-05
1.62332e-05
5.43548e-05
1.61677e-05
5.48823e-05
1.58874e-05
5.53942e-05
1.54376e-05
5.58841e-05
1.4859e-05
5.63469e-05
1.41877e-05
5.67787e-05
1.3455e-05
5.71771e-05
1.26868e-05
5.7541e-05
1.19046e-05
5.78706e-05
1.11251e-05
5.81668e-05
1.03612e-05
9.62234e-06
5.84313e-05
5.01475e-05
2.10746e-06
5.04767e-05
5.75537e-06
5.09023e-05
8.6963e-06
5.13788e-05
1.10264e-05
5.18824e-05
1.28126e-05
5.23999e-05
1.41165e-05
5.29227e-05
1.49976e-05
5.34445e-05
1.55132e-05
5.39595e-05
1.57182e-05
5.44622e-05
1.5665e-05
5.49476e-05
1.54021e-05
5.54109e-05
1.49743e-05
5.58483e-05
1.44215e-05
5.6257e-05
1.3779e-05
5.66352e-05
1.30768e-05
5.69821e-05
1.234e-05
5.72977e-05
1.15889e-05
5.75831e-05
1.08398e-05
5.78396e-05
1.01047e-05
9.39291e-06
5.8069e-05
5.0176e-05
1.93145e-06
5.05441e-05
5.38725e-06
5.10044e-05
8.23599e-06
5.1508e-05
1.05229e-05
5.20295e-05
1.22911e-05
5.25547e-05
1.35913e-05
5.30746e-05
1.44777e-05
5.35826e-05
1.50051e-05
5.40736e-05
1.52273e-05
5.45432e-05
1.51953e-05
5.4988e-05
1.49573e-05
5.54054e-05
1.45569e-05
5.57934e-05
1.40335e-05
5.61512e-05
1.34212e-05
5.64787e-05
1.27493e-05
5.67764e-05
1.20423e-05
5.70456e-05
1.13198e-05
5.72879e-05
1.05975e-05
5.75051e-05
9.8875e-06
9.19873e-06
5.76993e-05
5.02105e-05
1.72094e-06
5.06145e-05
4.98326e-06
5.1103e-05
7.74753e-06
5.16265e-05
9.99931e-06
5.216e-05
1.17576e-05
5.26887e-05
1.30626e-05
5.32032e-05
1.39632e-05
5.36969e-05
1.45115e-05
5.41649e-05
1.47592e-05
5.46041e-05
1.47562e-05
5.50121e-05
1.45492e-05
5.5388e-05
1.4181e-05
5.57316e-05
1.36899e-05
5.60435e-05
1.31093e-05
5.6325e-05
1.24678e-05
5.65778e-05
1.17894e-05
5.68042e-05
1.10934e-05
5.70063e-05
1.03954e-05
5.71865e-05
9.70727e-06
9.0381e-06
5.73472e-05
5.02482e-05
1.47275e-06
5.068e-05
4.55149e-06
5.11881e-05
7.23942e-06
5.17247e-05
9.46268e-06
5.22655e-05
1.12169e-05
5.27956e-05
1.25325e-05
5.3305e-05
1.34538e-05
5.37869e-05
1.40296e-05
5.42366e-05
1.43095e-05
5.46513e-05
1.43415e-05
5.50297e-05
1.41708e-05
5.53719e-05
1.38388e-05
5.56789e-05
1.33829e-05
5.59525e-05
1.28357e-05
5.61952e-05
1.22251e-05
5.64097e-05
1.15748e-05
5.65992e-05
1.09039e-05
5.67665e-05
1.02281e-05
5.69145e-05
9.55927e-06
8.90676e-06
5.70458e-05
5.02719e-05
5.07232e-05
5.12402e-05
5.17831e-05
5.23282e-05
5.28598e-05
5.33674e-05
5.38438e-05
5.42843e-05
5.46862e-05
5.50485e-05
5.53718e-05
5.56576e-05
5.59082e-05
5.61265e-05
5.63157e-05
5.6479e-05
5.66197e-05
5.67407e-05
5.68454e-05
2.82912e-05
8.79535e-06
2.14667e-05
6.82443e-06
1.63199e-05
5.14683e-06
1.25477e-05
3.77222e-06
9.8544e-06
2.69328e-06
7.96254e-06
1.89186e-06
6.63498e-06
1.32756e-06
5.68794e-06
9.47033e-07
4.99045e-06
6.97494e-07
4.45562e-06
5.34826e-07
4.02933e-06
4.26295e-07
3.67945e-06
3.49876e-07
3.38758e-06
2.91871e-07
3.14345e-06
2.44134e-07
2.94172e-06
2.0173e-07
2.78028e-06
1.61433e-07
2.6591e-06
1.21184e-07
2.57771e-06
8.13903e-08
2.52739e-06
5.03203e-08
3.00454e-08
4.18598e-05
1.13137e-05
3.83629e-05
1.03214e-05
3.44266e-05
9.08314e-06
3.04419e-05
7.75692e-06
2.66778e-05
6.45732e-06
2.3299e-05
5.27066e-06
2.03773e-05
4.24928e-06
1.79137e-05
3.41064e-06
1.58656e-05
2.74558e-06
1.41712e-05
2.22922e-06
1.27669e-05
1.83064e-06
1.1597e-05
1.5197e-06
1.06183e-05
1.27062e-06
9.7995e-06
1.06294e-06
9.12037e-06
8.80854e-07
8.56951e-06
7.1229e-07
8.14172e-06
5.48977e-07
7.83273e-06
3.9038e-07
7.62587e-06
2.5718e-07
1.77939e-07
4.85381e-05
1.22737e-05
4.68361e-05
1.20234e-05
4.44582e-05
1.1461e-05
4.15704e-05
1.06447e-05
3.8376e-05
9.65175e-06
3.50782e-05
8.56846e-06
3.18508e-05
7.47668e-06
2.882e-05
6.44139e-06
2.60609e-05
5.50466e-06
2.36045e-05
4.68566e-06
2.14502e-05
3.98495e-06
1.95795e-05
3.39039e-06
1.7967e-05
2.88309e-06
1.65882e-05
2.44172e-06
1.54239e-05
2.04518e-06
1.44619e-05
1.67427e-06
1.36966e-05
1.31432e-06
1.31238e-05
9.63171e-07
1.27268e-05
6.54134e-07
4.59837e-07
5.26432e-05
1.26289e-05
5.18233e-05
1.28434e-05
5.04778e-05
1.28065e-05
4.86123e-05
1.25103e-05
4.62916e-05
1.19724e-05
4.3626e-05
1.1234e-05
4.07501e-05
1.03526e-05
3.78001e-05
9.39146e-06
3.4895e-05
8.40975e-06
3.21261e-05
7.45452e-06
2.95543e-05
6.55676e-06
2.72136e-05
5.73106e-06
2.51187e-05
4.978e-06
2.32728e-05
4.28763e-06
2.16748e-05
3.64319e-06
2.03243e-05
3.02472e-06
1.92241e-05
2.41455e-06
1.83773e-05
1.80994e-06
1.77743e-05
1.25714e-06
8.86338e-07
5.53307e-05
1.26672e-05
5.49999e-05
1.31741e-05
5.43008e-05
1.35057e-05
5.3183e-05
1.3628e-05
5.16332e-05
1.35222e-05
4.96788e-05
1.31885e-05
4.73845e-05
1.26469e-05
4.48422e-05
1.19338e-05
4.21561e-05
1.10958e-05
3.94291e-05
1.01816e-05
3.67511e-05
9.23474e-06
3.4194e-05
8.28821e-06
3.18104e-05
7.36153e-06
2.96374e-05
6.46063e-06
2.77011e-05
5.5795e-06
2.60223e-05
4.70357e-06
2.46202e-05
3.81663e-06
2.35126e-05
2.91751e-06
2.27038e-05
2.06597e-06
1.45969e-06
5.71378e-05
1.25217e-05
5.70961e-05
1.32158e-05
5.68022e-05
1.37996e-05
5.61965e-05
1.42337e-05
5.52351e-05
1.44836e-05
5.38985e-05
1.4525e-05
5.21972e-05
1.43482e-05
5.01718e-05
1.39592e-05
4.7888e-05
1.33796e-05
4.54279e-05
1.26417e-05
4.28794e-05
1.17832e-05
4.03276e-05
1.08401e-05
3.78478e-05
9.84126e-06
3.5504e-05
8.80445e-06
3.3349e-05
7.73452e-06
3.14278e-05
6.62477e-06
2.97811e-05
5.46336e-06
2.84461e-05
4.25249e-06
2.74464e-05
3.06568e-06
2.17414e-06
5.83367e-05
1.22677e-05
5.84713e-05
1.30811e-05
5.84357e-05
1.38352e-05
5.81759e-05
1.44935e-05
5.76413e-05
1.50181e-05
5.67925e-05
1.53739e-05
5.56078e-05
1.55328e-05
5.40892e-05
1.54778e-05
5.22639e-05
1.5205e-05
5.01817e-05
1.47238e-05
4.79104e-05
1.40546e-05
4.55273e-05
1.32231e-05
4.31129e-05
1.22556e-05
4.07449e-05
1.11725e-05
3.84951e-05
9.98428e-06
3.64299e-05
8.69004e-06
3.46111e-05
7.28216e-06
3.30972e-05
5.76632e-06
3.1934e-05
4.22896e-06
3.01673e-06
5.90966e-05
1.19522e-05
5.93381e-05
1.28396e-05
5.94668e-05
1.37065e-05
5.94382e-05
1.45221e-05
5.92051e-05
1.52511e-05
5.8723e-05
1.58561e-05
5.79555e-05
1.63004e-05
5.68809e-05
1.65524e-05
5.54969e-05
1.65889e-05
5.38232e-05
1.63975e-05
5.19007e-05
1.59771e-05
4.97881e-05
1.53357e-05
4.75569e-05
1.44869e-05
4.52851e-05
1.34443e-05
4.30533e-05
1.2216e-05
4.09417e-05
1.08016e-05
3.90295e-05
9.19436e-06
3.73945e-05
7.40135e-06
3.6104e-05
5.51952e-06
3.9686e-06
5.95318e-05
1.16059e-05
5.98347e-05
1.25367e-05
6.00652e-05
1.3476e-05
6.0188e-05
1.43993e-05
6.01628e-05
1.52763e-05
5.99474e-05
1.60715e-05
5.95011e-05
1.67466e-05
5.87907e-05
1.72629e-05
5.77951e-05
1.75844e-05
5.65108e-05
1.76819e-05
5.49538e-05
1.7534e-05
5.31605e-05
1.7129e-05
5.11854e-05
1.6462e-05
4.90973e-05
1.55324e-05
4.69752e-05
1.43381e-05
4.49046e-05
1.28722e-05
4.29754e-05
1.11236e-05
4.12798e-05
9.09698e-06
3.99035e-05
6.89577e-06
5.00663e-06
5.97235e-05
1.12497e-05
6.00569e-05
1.22033e-05
6.03462e-05
1.31868e-05
6.05641e-05
1.41815e-05
6.06777e-05
1.51626e-05
6.065e-05
1.60992e-05
6.04421e-05
1.69546e-05
6.00168e-05
1.76882e-05
5.93435e-05
1.82577e-05
5.84033e-05
1.86221e-05
5.71928e-05
1.87445e-05
5.57276e-05
1.85942e-05
5.40429e-05
1.81467e-05
5.21927e-05
1.73826e-05
5.02469e-05
1.62839e-05
4.82882e-05
1.48309e-05
4.64096e-05
1.30023e-05
4.47114e-05
1.07951e-05
4.32926e-05
8.31459e-06
6.10523e-06
5.9731e-05
1.08984e-05
6.00736e-05
1.18607e-05
6.03916e-05
1.28687e-05
6.06643e-05
1.39087e-05
6.08657e-05
1.49612e-05
6.09649e-05
1.60001e-05
6.09271e-05
1.69924e-05
6.07163e-05
1.78989e-05
6.02986e-05
1.86754e-05
5.96464e-05
1.92743e-05
5.87433e-05
1.96476e-05
5.75883e-05
1.97492e-05
5.61987e-05
1.95363e-05
5.46117e-05
1.89696e-05
5.28836e-05
1.8012e-05
5.10884e-05
1.6626e-05
4.93154e-05
1.47753e-05
4.76663e-05
1.24443e-05
4.62462e-05
9.73464e-06
7.23813e-06
5.95994e-05
1.05622e-05
5.99359e-05
1.15242e-05
6.02612e-05
1.25434e-05
6.05598e-05
1.36102e-05
6.08113e-05
1.47097e-05
6.09908e-05
1.58206e-05
6.10688e-05
1.69144e-05
6.10127e-05
1.7955e-05
6.07893e-05
1.88988e-05
6.03678e-05
1.96958e-05
5.97241e-05
2.02913e-05
5.88456e-05
2.06277e-05
5.77351e-05
2.06468e-05
5.64138e-05
2.0291e-05
5.4923e-05
1.95028e-05
5.33242e-05
1.82248e-05
5.16974e-05
1.6402e-05
5.01394e-05
1.40024e-05
4.87551e-05
1.11189e-05
8.38004e-06
5.93635e-05
1.02483e-05
5.96832e-05
1.12045e-05
6.00005e-05
1.22261e-05
6.03038e-05
1.3307e-05
6.05775e-05
1.44359e-05
6.0802e-05
1.55961e-05
6.09532e-05
1.67633e-05
6.10029e-05
1.79052e-05
6.09208e-05
1.89808e-05
6.06765e-05
1.99401e-05
6.02427e-05
2.07251e-05
5.95998e-05
2.12706e-05
5.87398e-05
2.15068e-05
5.76707e-05
2.136e-05
5.64193e-05
2.07542e-05
5.50328e-05
1.96114e-05
5.35787e-05
1.78561e-05
5.21435e-05
1.54376e-05
5.08256e-05
1.24368e-05
9.50803e-06
5.90513e-05
9.96196e-06
5.93466e-05
1.09093e-05
5.96448e-05
1.1928e-05
5.99374e-05
1.30143e-05
6.02129e-05
1.41604e-05
6.0456e-05
1.5353e-05
6.06474e-05
1.65719e-05
6.07638e-05
1.77888e-05
6.07791e-05
1.89656e-05
6.06651e-05
2.00541e-05
6.03947e-05
2.09955e-05
5.99448e-05
2.17205e-05
5.93008e-05
2.21508e-05
5.84605e-05
2.22004e-05
5.74379e-05
2.17767e-05
5.62661e-05
2.07832e-05
5.49982e-05
1.91241e-05
5.37066e-05
1.67292e-05
5.24787e-05
1.36647e-05
1.06026e-05
5.86867e-05
9.70661e-06
5.89521e-05
1.06439e-05
5.92234e-05
1.16566e-05
5.94945e-05
1.27432e-05
5.97568e-05
1.3898e-05
5.99989e-05
1.5111e-05
6.02057e-05
1.63652e-05
6.03587e-05
1.76358e-05
6.04359e-05
1.88883e-05
6.04132e-05
2.00769e-05
6.02651e-05
2.11436e-05
5.99682e-05
2.20173e-05
5.95044e-05
2.26147e-05
5.88643e-05
2.28404e-05
5.80519e-05
2.25892e-05
5.70869e-05
2.17481e-05
5.60075e-05
2.02034e-05
5.48703e-05
1.78664e-05
5.37476e-05
1.47874e-05
1.16488e-05
5.82912e-05
9.48442e-06
5.85234e-05
1.04117e-05
5.87626e-05
1.14174e-05
5.90048e-05
1.2501e-05
5.92437e-05
1.36591e-05
5.94709e-05
1.48837e-05
5.96752e-05
1.61609e-05
5.98422e-05
1.74688e-05
5.99545e-05
1.8776e-05
5.99917e-05
2.00397e-05
5.99319e-05
2.12035e-05
5.97528e-05
2.21964e-05
5.94352e-05
2.29323e-05
5.89655e-05
2.33101e-05
5.83396e-05
2.3215e-05
5.75661e-05
2.25216e-05
5.66686e-05
2.1101e-05
5.56865e-05
1.88485e-05
5.4676e-05
1.57979e-05
1.26366e-05
5.78875e-05
9.29615e-06
5.80848e-05
1.02144e-05
5.82894e-05
1.12128e-05
5.84985e-05
1.2292e-05
5.87078e-05
1.34498e-05
5.89116e-05
1.468e-05
5.91017e-05
1.59708e-05
5.92675e-05
1.7303e-05
5.93954e-05
1.86481e-05
5.94693e-05
1.99658e-05
5.94706e-05
2.12021e-05
5.93799e-05
2.22872e-05
5.9178e-05
2.31342e-05
5.88493e-05
2.36388e-05
5.83839e-05
2.36804e-05
5.77809e-05
2.31246e-05
5.70502e-05
2.18317e-05
5.62147e-05
1.96839e-05
5.53144e-05
1.66982e-05
1.35617e-05
5.75028e-05
9.14055e-06
5.76661e-05
1.00511e-05
5.78362e-05
1.10427e-05
5.80115e-05
1.21166e-05
5.81895e-05
1.32718e-05
5.83662e-05
1.45032e-05
5.85362e-05
1.58008e-05
5.86918e-05
1.71474e-05
5.8823e-05
1.85169e-05
5.89173e-05
1.98715e-05
5.89597e-05
2.11597e-05
5.89334e-05
2.23135e-05
5.88207e-05
2.32469e-05
5.86048e-05
2.38547e-05
5.82719e-05
2.40133e-05
5.78132e-05
2.35834e-05
5.72266e-05
2.24183e-05
5.6519e-05
2.03915e-05
5.57169e-05
1.75004e-05
1.44257e-05
5.71727e-05
9.01371e-06
5.73057e-05
9.9181e-06
5.74448e-05
1.09036e-05
5.75895e-05
1.19719e-05
5.77386e-05
1.31227e-05
5.789e-05
1.43519e-05
5.80401e-05
1.56508e-05
5.81835e-05
1.70039e-05
5.83131e-05
1.83873e-05
5.8419e-05
1.97656e-05
5.8489e-05
2.10897e-05
5.85086e-05
2.22939e-05
5.84616e-05
2.32939e-05
5.83308e-05
2.39855e-05
5.80994e-05
2.42447e-05
5.77524e-05
2.39304e-05
5.72778e-05
2.28929e-05
5.6667e-05
2.10023e-05
5.59381e-05
1.82292e-05
1.52365e-05
5.69465e-05
5.70555e-05
5.71729e-05
5.72984e-05
5.74311e-05
5.75691e-05
5.77097e-05
5.78485e-05
5.79794e-05
5.80942e-05
5.81823e-05
5.82306e-05
5.82236e-05
5.81439e-05
5.79732e-05
5.76927e-05
5.72839e-05
5.67329e-05
5.60077e-05
)
;

boundaryField
{
    zeroGradientPlanes
    {
        type            calculated;
        value           nonuniform List<scalar> 
80
(
-1.4416e-06
-4.93575e-06
-8.17395e-06
-1.1025e-05
-1.34939e-05
-1.56207e-05
-1.745e-05
-1.90169e-05
-2.03405e-05
-2.14222e-05
-2.22445e-05
-2.27738e-05
-2.29631e-05
-2.27563e-05
-2.20946e-05
-2.0923e-05
-1.91964e-05
-1.68736e-05
-1.39163e-05
-1.03632e-05
2.49734e-06
7.47798e-06
1.24449e-05
1.73478e-05
2.21304e-05
2.67319e-05
3.10914e-05
3.51521e-05
3.88655e-05
4.2194e-05
4.51133e-05
4.76132e-05
4.96977e-05
5.13841e-05
5.27014e-05
5.36882e-05
5.43893e-05
5.48529e-05
5.51273e-05
5.50324e-05
1.20082e-06
4.10027e-06
6.72239e-06
8.91972e-06
1.06719e-05
1.20009e-05
1.29461e-05
1.35532e-05
1.3869e-05
1.39396e-05
1.38084e-05
1.35155e-05
1.30971e-05
1.25851e-05
1.20068e-05
1.13856e-05
1.07406e-05
1.00874e-05
9.43819e-06
8.80213e-06
8.91259e-06
9.80908e-06
1.07861e-05
1.18464e-05
1.299e-05
1.42138e-05
1.55102e-05
1.68651e-05
1.82564e-05
1.96508e-05
2.10016e-05
2.22456e-05
2.33009e-05
2.40651e-05
2.44154e-05
2.42109e-05
2.33017e-05
2.15532e-05
1.89544e-05
1.62118e-05
)
;
    }
    inlet
    {
        type            calculated;
        value           nonuniform List<scalar> 
20
(
-5e-05
-5e-05
-5e-05
-5e-05
-5e-05
-5e-05
-5e-05
-5e-05
-5e-05
-5e-05
-5e-05
-5e-05
-5e-05
-5e-05
-5e-05
-5e-05
-5e-05
-5e-05
-5e-05
-5e-05
)
;
    }
    plate
    {
        type            calculated;
        value           uniform 0;
    }
    frontAndBack
    {
        type            empty;
        value           nonuniform List<scalar> 0();
    }
}


// ************************************************************************* //
