/*--------------------------------*- C++ -*----------------------------------*\
| =========                 |                                                 |
| \\      /  F ield         | OpenFOAM: The Open Source CFD Toolbox           |
|  \\    /   O peration     | Version:  v2012                                 |
|   \\  /    A nd           | Website:  www.openfoam.com                      |
|    \\/     M anipulation  |                                                 |
\*---------------------------------------------------------------------------*/
FoamFile
{
    version     2.0;
    format      ascii;
    class       volVectorField;
    location    "0.2";
    object      U;
}
// * * * * * * * * * * * * * * * * * * * * * * * * * * * * * * * * * * * * * //

dimensions      [0 1 -1 0 0 0 0];


internalField   nonuniform List<vector> 
800
(
(0.997915 0.0157543 0)
(0.989626 0.0561089 0)
(0.979013 0.0998053 0)
(0.968015 0.145609 0)
(0.957082 0.193251 0)
(0.946339 0.242885 0)
(0.935858 0.294801 0)
(0.925656 0.349235 0)
(0.915707 0.406209 0)
(0.905956 0.465368 0)
(0.896313 0.525814 0)
(0.886648 0.585939 0)
(0.876791 0.643273 0)
(0.866543 0.694338 0)
(0.855591 0.734547 0)
(0.843108 0.758199 0)
(0.827854 0.758641 0)
(0.811716 0.728289 0)
(0.802722 0.657694 0)
(0.784568 0.535274 0)
(0.998236 0.0188225 0)
(0.990662 0.0613483 0)
(0.980604 0.106142 0)
(0.970158 0.152671 0)
(0.959856 0.200892 0)
(0.949896 0.251046 0)
(0.940429 0.303463 0)
(0.931579 0.358394 0)
(0.923479 0.415868 0)
(0.916298 0.475525 0)
(0.91026 0.536462 0)
(0.905644 0.597081 0)
(0.90277 0.654972 0)
(0.90193 0.706865 0)
(0.903229 0.748673 0)
(0.906262 0.775728 0)
(0.909903 0.783322 0)
(0.9128 0.767183 0)
(0.913101 0.722762 0)
(0.903066 0.644895 0)
(0.998674 0.0216727 0)
(0.992243 0.0666395 0)
(0.983231 0.112631 0)
(0.973842 0.159835 0)
(0.964726 0.208462 0)
(0.956194 0.258834 0)
(0.948512 0.311278 0)
(0.941948 0.365989 0)
(0.936808 0.422891 0)
(0.933456 0.481476 0)
(0.932306 0.540649 0)
(0.933773 0.598609 0)
(0.938183 0.652811 0)
(0.945639 0.700035 0)
(0.955851 0.736633 0)
(0.96796 0.758958 0)
(0.980468 0.763998 0)
(0.991303 0.750024 0)
(0.99771 0.716925 0)
(0.996089 0.666692 0)
(0.99906 0.0237074 0)
(0.9939 0.070758 0)
(0.986304 0.117766 0)
(0.978388 0.165436 0)
(0.970894 0.21418 0)
(0.964243 0.264362 0)
(0.958811 0.316259 0)
(0.954981 0.369958 0)
(0.953166 0.425227 0)
(0.953803 0.481376 0)
(0.957313 0.537149 0)
(0.964011 0.59068 0)
(0.973992 0.639556 0)
(0.987012 0.68102 0)
(1.00237 0.712303 0)
(1.01887 0.731068 0)
(1.0349 0.73587 0)
(1.04858 0.726514 0)
(1.05799 0.70421 0)
(1.06149 0.671583 0)
(0.999362 0.0251853 0)
(0.995456 0.0739705 0)
(0.989493 0.121829 0)
(0.983333 0.169792 0)
(0.977754 0.218408 0)
(0.973252 0.268053 0)
(0.970277 0.318932 0)
(0.969268 0.371009 0)
(0.970664 0.423907 0)
(0.974872 0.476812 0)
(0.982196 0.528421 0)
(0.992752 0.576979 0)
(1.00636 0.620411 0)
(1.02249 0.656571 0)
(1.0402 0.683562 0)
(1.05824 0.700062 0)
(1.07517 0.705593 0)
(1.08957 0.70063 0)
(1.10025 0.686547 0)
(1.10648 0.665403 0)
(0.999597 0.0262391 0)
(0.996869 0.0763808 0)
(0.992614 0.124879 0)
(0.988355 0.17294 0)
(0.984831 0.221189 0)
(0.982568 0.269986 0)
(0.982038 0.31946 0)
(0.98368 0.369467 0)
(0.987891 0.419529 0)
(0.994975 0.468786 0)
(1.00508 0.516003 0)
(1.01812 0.559651 0)
(1.0337 0.598074 0)
(1.05113 0.629724 0)
(1.06944 0.653403 0)
(1.0875 0.668476 0)
(1.10418 0.674971 0)
(1.11849 0.673571 0)
(1.12972 0.665476 0)
(1.13753 0.652197 0)
(0.99978 0.0269188 0)
(0.998127 0.0779907 0)
(0.995559 0.126862 0)
(0.99322 0.174802 0)
(0.991762 0.222456 0)
(0.991684 0.270152 0)
(0.993434 0.317946 0)
(0.997404 0.365618 0)
(1.00391 0.412644 0)
(1.01312 0.458193 0)
(1.02505 0.501174 0)
(1.03945 0.540338 0)
(1.05581 0.574445 0)
(1.07341 0.602447 0)
(1.09136 0.623654 0)
(1.10875 0.63784 0)
(1.1247 0.645262 0)
(1.13856 0.646597 0)
(1.14988 0.642812 0)
(1.15852 0.635012 0)
(0.999924 0.0272693 0)
(0.999235 0.0788328 0)
(0.998268 0.127786 0)
(0.997781 0.175383 0)
(0.998297 0.222249 0)
(1.00025 0.268664 0)
(1.00402 0.314626 0)
(1.00993 0.35987 0)
(1.01819 0.403877 0)
(1.02887 0.445897 0)
(1.04184 0.485019 0)
(1.05678 0.520279 0)
(1.07314 0.550795 0)
(1.09026 0.575899 0)
(1.10737 0.59524 0)
(1.12375 0.608822 0)
(1.13877 0.616985 0)
(1.15197 0.620332 0)
(1.16309 0.619627 0)
(1.17204 0.615696 0)
(1.00004 0.0273356 0)
(1.00021 0.0789687 0)
(1.00072 0.127715 0)
(1.00196 0.174761 0)
(1.00429 0.220683 0)
(1.00806 0.265709 0)
(1.01356 0.309793 0)
(1.02101 0.352652 0)
(1.03054 0.393804 0)
(1.04212 0.432609 0)
(1.05555 0.468343 0)
(1.07047 0.500295 0)
(1.08636 0.527869 0)
(1.10263 0.550674 0)
(1.11866 0.568574 0)
(1.1339 0.581695 0)
(1.14789 0.590392 0)
(1.16031 0.595183 0)
(1.17101 0.596676 0)
(1.17994 0.595502 0)
(1.00013 0.0271567 0)
(1.00106 0.0784662 0)
(1.00292 0.126731 0)
(1.00573 0.173042 0)
(1.0097 0.217908 0)
(1.01504 0.261502 0)
(1.02195 0.303742 0)
(1.03058 0.34435 0)
(1.04096 0.3829 0)
(1.053 0.418867 0)
(1.06647 0.451701 0)
(1.08099 0.4809 0)
(1.09612 0.506088 0)
(1.11136 0.527064 0)
(1.12621 0.543828 0)
(1.14027 0.556568 0)
(1.15319 0.565622 0)
(1.16477 0.571432 0)
(1.1749 0.574489 0)
(1.18356 0.57529 0)
(1.00021 0.0267634 0)
(1.00182 0.0773892 0)
(1.00489 0.124923 0)
(1.00912 0.170345 0)
(1.01451 0.214085 0)
(1.02117 0.256255 0)
(1.02922 0.296747 0)
(1.0387 0.335298 0)
(1.04959 0.371543 0)
(1.06175 0.405067 0)
(1.07495 0.435467 0)
(1.08885 0.462408 0)
(1.10306 0.485675 0)
(1.11718 0.505198 0)
(1.13083 0.521057 0)
(1.1437 0.533468 0)
(1.15555 0.542745 0)
(1.16623 0.549267 0)
(1.17569 0.553439 0)
(1.18392 0.555661 0)
(1.00028 0.0261777 0)
(1.00251 0.0757928 0)
(1.00669 0.122376 0)
(1.01217 0.166791 0)
(1.01879 0.209371 0)
(1.02655 0.250168 0)
(1.03546 0.289051 0)
(1.04551 0.325773 0)
(1.05663 0.360027 0)
(1.06867 0.391493 0)
(1.0814 0.419888 0)
(1.09453 0.445005 0)
(1.10774 0.466742 0)
(1.1207 0.485116 0)
(1.13315 0.500256 0)
(1.14485 0.512385 0)
(1.15563 0.521796 0)
(1.16539 0.528816 0)
(1.17411 0.533785 0)
(1.18178 0.537036 0)
(1.00036 0.0254116 0)
(1.00318 0.0737195 0)
(1.00837 0.119169 0)
(1.01495 0.16249 0)
(1.02261 0.203912 0)
(1.03126 0.243423 0)
(1.04081 0.280863 0)
(1.0512 0.316 0)
(1.06235 0.348576 0)
(1.07408 0.378349 0)
(1.0862 0.405128 0)
(1.09847 0.428797 0)
(1.11063 0.449335 0)
(1.12245 0.466815 0)
(1.13371 0.481394 0)
(1.14425 0.493296 0)
(1.15397 0.502788 0)
(1.1628 0.510161 0)
(1.17073 0.515708 0)
(1.17777 0.51971 0)
(1.00044 0.0244655 0)
(1.00385 0.0711968 0)
(1.00998 0.115363 0)
(1.01754 0.157542 0)
(1.02609 0.197842 0)
(1.03542 0.236176 0)
(1.04542 0.272356 0)
(1.05597 0.306157 0)
(1.06697 0.337358 0)
(1.07827 0.365776 0)
(1.0897 0.391285 0)
(1.10106 0.413838 0)
(1.11216 0.433464 0)
(1.12284 0.450272 0)
(1.13294 0.464433 0)
(1.14236 0.476166 0)
(1.15103 0.485721 0)
(1.15892 0.493357 0)
(1.16603 0.499333 0)
(1.17237 0.503894 0)
(1.00055 0.0233273 0)
(1.00457 0.0682394 0)
(1.01159 0.111013 0)
(1.02002 0.152036 0)
(1.0293 0.191275 0)
(1.03916 0.228561 0)
(1.04944 0.263671 0)
(1.06001 0.296379 0)
(1.07075 0.326491 0)
(1.08153 0.353863 0)
(1.0922 0.378416 0)
(1.10264 0.400145 0)
(1.1127 0.419113 0)
(1.12226 0.435447 0)
(1.13123 0.449326 0)
(1.13956 0.460961 0)
(1.1472 0.470584 0)
(1.15415 0.478434 0)
(1.16041 0.484743 0)
(1.16602 0.489731 0)
(1.00069 0.0219759 0)
(1.00538 0.0648624 0)
(1.01324 0.106182 0)
(1.02243 0.14607 0)
(1.0323 0.184331 0)
(1.04256 0.220705 0)
(1.05299 0.25493 0)
(1.06347 0.286776 0)
(1.07387 0.316061 0)
(1.08407 0.342666 0)
(1.09399 0.366543 0)
(1.1035 0.387708 0)
(1.11254 0.406245 0)
(1.12103 0.422289 0)
(1.12892 0.436017 0)
(1.13618 0.447632 0)
(1.14282 0.457352 0)
(1.14884 0.465398 0)
(1.15426 0.471984 0)
(1.15912 0.477312 0)
(1.0009 0.0203745 0)
(1.00631 0.0610772 0)
(1.01495 0.100934 0)
(1.02477 0.139745 0)
(1.0351 0.177129 0)
(1.04562 0.212733 0)
(1.05611 0.246255 0)
(1.06642 0.277452 0)
(1.07644 0.30615 0)
(1.08608 0.332239 0)
(1.09525 0.355685 0)
(1.1039 0.376518 0)
(1.11197 0.394824 0)
(1.11944 0.410741 0)
(1.12631 0.424441 0)
(1.13257 0.436116 0)
(1.13824 0.445974 0)
(1.14336 0.454219 0)
(1.14796 0.461054 0)
(1.15207 0.466668 0)
(1.00117 0.0184044 0)
(1.00736 0.0567763 0)
(1.01666 0.0951864 0)
(1.02697 0.132987 0)
(1.03763 0.169596 0)
(1.04831 0.204567 0)
(1.05878 0.237561 0)
(1.0689 0.268321 0)
(1.07855 0.296666 0)
(1.08765 0.322488 0)
(1.09614 0.345751 0)
(1.104 0.366483 0)
(1.11121 0.384767 0)
(1.11777 0.400731 0)
(1.12371 0.414536 0)
(1.12906 0.426366 0)
(1.13385 0.436415 0)
(1.13813 0.444881 0)
(1.14196 0.451954 0)
(1.14536 0.457819 0)
(1.0015 0.0158388 0)
(1.00842 0.0517088 0)
(1.01819 0.0886589 0)
(1.02883 0.12547 0)
(1.03969 0.161346 0)
(1.05046 0.195757 0)
(1.0609 0.228333 0)
(1.07086 0.258802 0)
(1.08021 0.286974 0)
(1.08887 0.312736 0)
(1.09683 0.33604 0)
(1.10405 0.356902 0)
(1.11055 0.37539 0)
(1.11636 0.391616 0)
(1.12152 0.405723 0)
(1.12609 0.417875 0)
(1.13013 0.42825 0)
(1.13369 0.43703 0)
(1.13684 0.444395 0)
(1.13963 0.450517 0)
(1.00173 0.0131884 0)
(1.00911 0.0469729 0)
(1.01913 0.0827529 0)
(1.02994 0.118756 0)
(1.04091 0.154019 0)
(1.05174 0.187953 0)
(1.06218 0.220163 0)
(1.07207 0.250369 0)
(1.08127 0.278378 0)
(1.08972 0.304072 0)
(1.09738 0.327399 0)
(1.10425 0.348365 0)
(1.11035 0.367029 0)
(1.11572 0.383488 0)
(1.12041 0.397871 0)
(1.12448 0.410327 0)
(1.128 0.42102 0)
(1.13103 0.430117 0)
(1.13364 0.437788 0)
(1.13588 0.444197 0)
(0.638938 0.349506 0)
(0.493013 0.221181 0)
(0.370541 0.134994 0)
(0.281676 0.0795198 0)
(0.218942 0.0450988 0)
(0.174632 0.0246894 0)
(0.143475 0.0132178 0)
(0.121465 0.00711995 0)
(0.105538 0.00403909 0)
(0.0935641 0.00252899 0)
(0.0841815 0.00177297 0)
(0.076569 0.00135145 0)
(0.0702499 0.00107039 0)
(0.0649553 0.000848948 0)
(0.0605402 0.000655624 0)
(0.0569373 0.000477664 0)
(0.0541345 0.000309918 0)
(0.0521444 0.00015918 0)
(0.0508472 6.69301e-05 0)
(0.0501929 8.07794e-06 0)
(0.866374 0.534022 0)
(0.804601 0.419831 0)
(0.72754 0.316104 0)
(0.646519 0.229532 0)
(0.568187 0.161697 0)
(0.496443 0.111527 0)
(0.433467 0.0762384 0)
(0.379888 0.0523511 0)
(0.335171 0.0365556 0)
(0.298166 0.0261682 0)
(0.267558 0.0192397 0)
(0.242131 0.014468 0)
(0.22089 0.0110357 0)
(0.203097 0.00844664 0)
(0.188249 0.00640068 0)
(0.17604 0.00471313 0)
(0.166326 0.00327526 0)
(0.159054 0.00206029 0)
(0.153934 0.00119187 0)
(0.150952 0.000711648 0)
(0.983217 0.602683 0)
(0.956514 0.528509 0)
(0.914927 0.448612 0)
(0.86115 0.369334 0)
(0.799197 0.295771 0)
(0.733307 0.231425 0)
(0.667345 0.177953 0)
(0.604347 0.135366 0)
(0.546296 0.102541 0)
(0.494185 0.0777916 0)
(0.448242 0.0593209 0)
(0.408208 0.0455153 0)
(0.373598 0.0350696 0)
(0.343883 0.0269982 0)
(0.318612 0.0205872 0)
(0.29747 0.015336 0)
(0.280297 0.0109201 0)
(0.267049 0.00721185 0)
(0.257377 0.00440758 0)
(0.251386 0.00281638 0)
(1.05823 0.6308 0)
(1.04678 0.581173 0)
(1.02507 0.523112 0)
(0.992586 0.459792 0)
(0.950104 0.394852 0)
(0.899492 0.331817 0)
(0.843315 0.273578 0)
(0.784385 0.222054 0)
(0.725324 0.178118 0)
(0.668258 0.141737 0)
(0.614694 0.112237 0)
(0.565541 0.0886014 0)
(0.52124 0.0697164 0)
(0.481927 0.0545321 0)
(0.447591 0.042147 0)
(0.418198 0.0318408 0)
(0.393775 0.0230986 0)
(0.374439 0.0156856 0)
(0.359922 0.00986567 0)
(0.35053 0.00636781 0)
(1.1082 0.638509 0)
(1.1048 0.604729 0)
(1.09468 0.563246 0)
(1.07651 0.515184 0)
(1.04963 0.462401 0)
(1.0142 0.407245 0)
(0.97118 0.352206 0)
(0.92222 0.299557 0)
(0.869355 0.25106 0)
(0.814721 0.207819 0)
(0.760282 0.170266 0)
(0.707667 0.13828 0)
(0.658107 0.11135 0)
(0.612471 0.0887541 0)
(0.571359 0.0697086 0)
(0.535212 0.0534759 0)
(0.504422 0.039467 0)
(0.479418 0.0273939 0)
(0.460159 0.0176108 0)
(0.44724 0.0113987 0)
(1.14212 0.634601 0)
(1.1434 0.611709 0)
(1.14026 0.58244 0)
(1.1314 0.546915 0)
(1.11575 0.505816 0)
(1.09265 0.460366 0)
(1.062 0.412209 0)
(1.02433 0.363195 0)
(0.980763 0.31513 0)
(0.93282 0.269552 0)
(0.88226 0.227566 0)
(0.83085 0.189791 0)
(0.780213 0.156382 0)
(0.731741 0.127131 0)
(0.686587 0.101588 0)
(0.645707 0.0791952 0)
(0.609946 0.0594353 0)
(0.580143 0.0420584 0)
(0.556598 0.0275616 0)
(0.540279 0.0178955 0)
(1.16477 0.623844 0)
(1.16884 0.608591 0)
(1.17003 0.588243 0)
(1.16725 0.562487 0)
(1.15942 0.53135 0)
(1.14562 0.495273 0)
(1.1252 0.455117 0)
(1.09797 0.412092 0)
(1.06421 0.367623 0)
(1.02473 0.323169 0)
(0.980751 0.280044 0)
(0.933759 0.239275 0)
(0.885372 0.201519 0)
(0.83719 0.167061 0)
(0.790715 0.135862 0)
(0.74732 0.107663 0)
(0.708281 0.0821419 0)
(0.674868 0.059181 0)
(0.647776 0.0394833 0)
(0.628408 0.025765 0)
(1.17919 0.609069 0)
(1.1849 0.599279 0)
(1.18876 0.585483 0)
(1.18993 0.567202 0)
(1.18746 0.54414 0)
(1.18042 0.516265 0)
(1.16796 0.483867 0)
(1.14948 0.447573 0)
(1.12472 0.408306 0)
(1.09388 0.367192 0)
(1.05756 0.325425 0)
(1.0168 0.284119 0)
(0.972937 0.244187 0)
(0.927488 0.206258 0)
(0.882065 0.170658 0)
(0.83828 0.137453 0)
(0.797732 0.106575 0)
(0.762067 0.0781095 0)
(0.732358 0.0530175 0)
(0.710477 0.0348428 0)
(1.18747 0.592125 0)
(1.19407 0.586291 0)
(1.19953 0.57733 0)
(1.20321 0.56473 0)
(1.20434 0.548056 0)
(1.20206 0.527018 0)
(1.19554 0.501536 0)
(1.18401 0.471796 0)
(1.1669 0.438262 0)
(1.14395 0.401652 0)
(1.1153 0.36287 0)
(1.08147 0.322895 0)
(1.0434 0.282666 0)
(1.00234 0.242972 0)
(0.959811 0.204381 0)
(0.917465 0.16723 0)
(0.877067 0.131705 0)
(0.840531 0.0981207 0)
(0.809228 0.0677265 0)
(0.7855 0.0449122 0)
(1.19113 0.574259 0)
(1.1981 0.571311 0)
(1.20443 0.565934 0)
(1.20962 0.557639 0)
(1.21307 0.54595 0)
(1.21406 0.530455 0)
(1.21183 0.510859 0)
(1.20558 0.487045 0)
(1.19462 0.459117 0)
(1.17844 0.427415 0)
(1.15679 0.392502 0)
(1.12981 0.355102 0)
(1.09799 0.316018 0)
(1.06226 0.27603 0)
(1.02388 0.235808 0)
(0.984382 0.195861 0)
(0.945554 0.15658 0)
(0.909428 0.118493 0)
(0.877556 0.0831363 0)
(0.852718 0.055723 0)
(1.19127 0.556334 0)
(1.19827 0.555502 0)
(1.20495 0.55279 0)
(1.21096 0.547753 0)
(1.21581 0.539925 0)
(1.21894 0.528848 0)
(1.21967 0.514116 0)
(1.2173 0.495426 0)
(1.21109 0.472623 0)
(1.20041 0.44574 0)
(1.1848 0.415019 0)
(1.16408 0.38089 0)
(1.1384 0.343931 0)
(1.10831 0.304793 0)
(1.07478 0.264119 0)
(1.0391 0.22248 0)
(1.00295 0.180397 0)
(0.968329 0.138563 0)
(0.936834 0.0987761 0)
(0.911636 0.0670091 0)
(1.18874 0.538953 0)
(1.19552 0.539682 0)
(1.2022 0.538957 0)
(1.20851 0.536385 0)
(1.21411 0.53153 0)
(1.21852 0.523936 0)
(1.22121 0.513148 0)
(1.22154 0.498757 0)
(1.21884 0.480438 0)
(1.21246 0.457997 0)
(1.20181 0.431407 0)
(1.18652 0.400817 0)
(1.16648 0.366551 0)
(1.14192 0.329057 0)
(1.11347 0.288859 0)
(1.08217 0.246497 0)
(1.04945 0.202532 0)
(1.0172 0.157767 0)
(0.986897 0.114211 0)
(0.962051 0.078507 0)
(1.18422 0.522543 0)
(1.19059 0.52443 0)
(1.19701 0.525192 0)
(1.20327 0.524486 0)
(1.20912 0.521915 0)
(1.21419 0.517042 0)
(1.21805 0.509406 0)
(1.22016 0.498543 0)
(1.21994 0.484027 0)
(1.21676 0.465507 0)
(1.21002 0.442748 0)
(1.19924 0.415659 0)
(1.18413 0.384315 0)
(1.16466 0.34894 0)
(1.1412 0.309882 0)
(1.11447 0.267576 0)
(1.08565 0.222555 0)
(1.05638 0.175663 0)
(1.02791 0.129065 0)
(1.00405 0.0899706 0)
(1.17823 0.507409 0)
(1.18407 0.510161 0)
(1.19004 0.512041 0)
(1.196 0.512749 0)
(1.20174 0.511926 0)
(1.207 0.509166 0)
(1.21143 0.504016 0)
(1.2146 0.495998 0)
(1.21601 0.484629 0)
(1.21511 0.469455 0)
(1.21133 0.450094 0)
(1.20416 0.426264 0)
(1.19318 0.397822 0)
(1.17823 0.364774 0)
(1.15941 0.327271 0)
(1.13719 0.285601 0)
(1.11243 0.240213 0)
(1.08651 0.191942 0)
(1.06034 0.143043 0)
(1.03797 0.101187 0)
(1.17123 0.493763 0)
(1.17646 0.49717 0)
(1.18185 0.499896 0)
(1.18731 0.501675 0)
(1.19269 0.502186 0)
(1.19779 0.501051 0)
(1.20235 0.49784 0)
(1.20603 0.492075 0)
(1.20842 0.48325 0)
(1.20905 0.470852 0)
(1.20741 0.454397 0)
(1.20301 0.433464 0)
(1.19541 0.407732 0)
(1.18431 0.377014 0)
(1.16966 0.341271 0)
(1.15167 0.300627 0)
(1.13094 0.255416 0)
(1.10852 0.20642 0)
(1.08492 0.155936 0)
(1.06443 0.111983 0)
(1.16364 0.481748 0)
(1.1682 0.485656 0)
(1.17293 0.489026 0)
(1.17777 0.491617 0)
(1.18262 0.493138 0)
(1.18733 0.49324 0)
(1.19169 0.491516 0)
(1.19547 0.487502 0)
(1.19834 0.480686 0)
(1.19991 0.470527 0)
(1.19976 0.456477 0)
(1.19743 0.438018 0)
(1.19249 0.414696 0)
(1.1846 0.386166 0)
(1.17357 0.352219 0)
(1.15943 0.312823 0)
(1.1425 0.268188 0)
(1.12354 0.21902 0)
(1.1026 0.167601 0)
(1.08419 0.122208 0)
(1.1559 0.471429 0)
(1.15977 0.475731 0)
(1.1638 0.479594 0)
(1.16795 0.482799 0)
(1.17216 0.485078 0)
(1.17633 0.486107 0)
(1.18031 0.4855 0)
(1.18392 0.482812 0)
(1.18691 0.477537 0)
(1.189 0.469124 0)
(1.18982 0.456992 0)
(1.18898 0.44056 0)
(1.1861 0.419283 0)
(1.18081 0.392695 0)
(1.17284 0.360455 0)
(1.16207 0.322397 0)
(1.14859 0.278612 0)
(1.13285 0.229723 0)
(1.11446 0.177945 0)
(1.09818 0.131718 0)
(1.14853 0.462849 0)
(1.15172 0.467462 0)
(1.15506 0.471698 0)
(1.15853 0.475353 0)
(1.16208 0.478175 0)
(1.16565 0.479859 0)
(1.16915 0.480042 0)
(1.17244 0.478298 0)
(1.17536 0.474137 0)
(1.17767 0.467015 0)
(1.17909 0.45634 0)
(1.17932 0.441502 0)
(1.17798 0.421899 0)
(1.17473 0.396987 0)
(1.16925 0.366328 0)
(1.1613 0.329652 0)
(1.15078 0.286954 0)
(1.13783 0.23877 0)
(1.12168 0.187171 0)
(1.10736 0.140668 0)
(1.14221 0.455774 0)
(1.14481 0.460608 0)
(1.14753 0.46508 0)
(1.15038 0.469007 0)
(1.15333 0.472159 0)
(1.15635 0.474258 0)
(1.15938 0.474966 0)
(1.16235 0.473884 0)
(1.16512 0.470547 0)
(1.16752 0.464425 0)
(1.16933 0.454931 0)
(1.17028 0.441439 0)
(1.17007 0.423319 0)
(1.16834 0.399973 0)
(1.16476 0.370891 0)
(1.15898 0.335722 0)
(1.15076 0.29438 0)
(1.13997 0.247324 0)
(1.12548 0.196407 0)
(1.11271 0.150157 0)
(1.13793 0.44973 0)
(1.14003 0.454852 0)
(1.14229 0.459643 0)
(1.14473 0.46393 0)
(1.14732 0.4675 0)
(1.15004 0.470088 0)
(1.15285 0.471377 0)
(1.15567 0.470985 0)
(1.1584 0.468459 0)
(1.1609 0.463279 0)
(1.16298 0.454857 0)
(1.1644 0.442557 0)
(1.16487 0.425722 0)
(1.16406 0.403715 0)
(1.16161 0.375971 0)
(1.15714 0.342078 0)
(1.15027 0.301886 0)
(1.14069 0.255797 0)
(1.12703 0.2056 0)
(1.1151 0.159913 0)
)
;

boundaryField
{
    zeroGradientPlanes
    {
        type            zeroGradient;
    }
    inlet
    {
        type            fixedValue;
        value           uniform (1 0 0);
    }
    plate
    {
        type            noSlip;
    }
    frontAndBack
    {
        type            empty;
    }
}


// ************************************************************************* //
