/*--------------------------------*- C++ -*----------------------------------*\
| =========                 |                                                 |
| \\      /  F ield         | OpenFOAM: The Open Source CFD Toolbox           |
|  \\    /   O peration     | Version:  v2012                                 |
|   \\  /    A nd           | Website:  www.openfoam.com                      |
|    \\/     M anipulation  |                                                 |
\*---------------------------------------------------------------------------*/
FoamFile
{
    version     2.0;
    format      ascii;
    class       surfaceScalarField;
    location    "0.4";
    object      phi;
}
// * * * * * * * * * * * * * * * * * * * * * * * * * * * * * * * * * * * * * //

dimensions      [0 3 -1 0 0 0 0];
oriented        oriented;


internalField   nonuniform List<scalar> 
760
(
3.75282e-05
1.24718e-05
2.64817e-05
1.10465e-05
1.94611e-05
7.02059e-06
1.5052e-05
4.40911e-06
1.22071e-05
2.84492e-06
1.02983e-05
1.90881e-06
8.95596e-06
1.34232e-06
7.96765e-06
9.88306e-07
7.21147e-06
7.56186e-07
6.61568e-06
5.9579e-07
6.13634e-06
4.79333e-07
5.74537e-06
3.90976e-07
5.42403e-06
3.21334e-07
5.15931e-06
2.64728e-07
4.94143e-06
2.17874e-07
4.76209e-06
1.79344e-07
4.61241e-06
1.49672e-07
4.47978e-06
1.32632e-07
4.34563e-06
1.34149e-07
1.42867e-07
5.14136e-05
1.10582e-05
4.73035e-05
1.51567e-05
4.13981e-05
1.2926e-05
3.58426e-05
9.96469e-06
3.12061e-05
7.48136e-06
2.74993e-05
5.61558e-06
2.45642e-05
4.27742e-06
2.22271e-05
3.32549e-06
2.03449e-05
2.63836e-06
1.88106e-05
2.13009e-06
1.75465e-05
1.74344e-06
1.64968e-05
1.44071e-06
1.5621e-05
1.19708e-06
1.48895e-05
9.96278e-07
1.42791e-05
8.28216e-07
1.37707e-05
6.87799e-07
1.33456e-05
5.74755e-07
1.2984e-05
4.94192e-07
1.26652e-05
4.52969e-07
4.42304e-07
5.28832e-05
8.17493e-06
5.34093e-05
1.46306e-05
5.11705e-05
1.51648e-05
4.76191e-05
1.35161e-05
4.37569e-05
1.13435e-05
4.00863e-05
9.28619e-06
3.68085e-05
7.55524e-06
3.39662e-05
6.16771e-06
3.15327e-05
5.07187e-06
2.94581e-05
4.20469e-06
2.76907e-05
3.51084e-06
2.61848e-05
2.94668e-06
2.49023e-05
2.47958e-06
2.38125e-05
2.08608e-06
2.28902e-05
1.75049e-06
2.21139e-05
1.46409e-06
2.14636e-05
1.22505e-06
2.09191e-05
1.03864e-06
2.04583e-05
9.13836e-07
8.51338e-07
5.23444e-05
5.8305e-06
5.44238e-05
1.25512e-05
5.46423e-05
1.49464e-05
5.32949e-05
1.48634e-05
5.10139e-05
1.36246e-05
4.83173e-05
1.19828e-05
4.55465e-05
1.0326e-05
4.28934e-05
8.8208e-06
4.04493e-05
7.51599e-06
3.82471e-05
6.40695e-06
3.62891e-05
5.46875e-06
3.4564e-05
4.67184e-06
3.30548e-05
3.98879e-06
3.17438e-05
3.39704e-06
3.06143e-05
2.88004e-06
2.96503e-05
2.428e-06
2.88367e-05
2.03873e-06
2.81566e-05
1.71867e-06
2.75884e-05
1.48211e-06
1.34678e-06
5.16292e-05
4.20128e-06
5.38894e-05
1.0291e-05
5.52766e-05
1.35592e-05
5.54686e-05
1.46715e-05
5.4652e-05
1.44411e-05
5.31459e-05
1.34889e-05
5.12482e-05
1.22236e-05
4.91843e-05
1.08848e-05
4.71043e-05
9.59597e-06
4.51002e-05
8.41098e-06
4.3224e-05
7.34503e-06
4.15017e-05
6.39408e-06
3.99446e-05
5.54597e-06
3.85548e-05
4.78675e-06
3.73304e-05
4.10452e-06
3.62663e-05
3.49205e-06
3.53558e-05
2.94927e-06
3.45885e-05
2.48598e-06
3.39458e-05
2.12475e-06
1.90573e-06
5.1086e-05
3.11527e-06
5.30525e-05
8.32448e-06
5.48091e-05
1.18026e-05
5.58485e-05
1.36322e-05
5.60747e-05
1.4215e-05
5.55973e-05
1.39663e-05
5.45983e-05
1.32225e-05
5.32595e-05
1.22236e-05
5.17311e-05
1.11244e-05
5.0126e-05
1.0016e-05
4.85238e-05
8.94725e-06
4.6978e-05
7.93989e-06
4.55234e-05
7.0005e-06
4.41822e-05
6.12797e-06
4.29678e-05
5.31889e-06
4.18881e-05
4.57179e-06
4.09461e-05
3.89123e-06
4.01396e-05
3.2925e-06
3.94557e-05
2.80863e-06
2.50458e-06
5.07292e-05
2.38611e-06
5.23084e-05
6.74526e-06
5.40316e-05
1.00793e-05
5.54228e-05
1.22409e-05
5.62661e-05
1.33717e-05
5.6528e-05
1.37044e-05
5.6277e-05
1.34736e-05
5.56233e-05
1.28773e-05
5.46826e-05
1.20651e-05
5.35577e-05
1.11409e-05
5.23327e-05
1.01722e-05
5.10731e-05
9.19958e-06
4.98276e-05
8.24598e-06
4.86324e-05
7.32315e-06
4.75138e-05
6.43747e-06
4.64907e-05
5.5949e-06
4.55757e-05
4.80625e-06
4.47744e-05
4.09377e-06
4.40812e-05
3.5019e-06
3.12022e-06
5.05032e-05
1.88287e-06
5.17341e-05
5.51441e-06
5.32606e-05
8.55284e-06
5.47096e-05
1.07919e-05
5.58464e-05
1.22349e-05
5.65654e-05
1.29854e-05
5.68543e-05
1.31846e-05
5.67569e-05
1.29747e-05
5.63429e-05
1.24791e-05
5.56889e-05
1.1795e-05
5.48671e-05
1.09939e-05
5.39407e-05
1.0126e-05
5.29623e-05
9.22439e-06
5.19745e-05
8.31102e-06
5.1011e-05
7.40093e-06
5.00984e-05
6.50748e-06
4.92565e-05
5.64814e-06
4.84977e-05
4.8526e-06
4.78232e-05
4.1764e-06
3.73142e-06
5.03585e-05
1.52435e-06
5.13101e-05
4.56283e-06
5.25982e-05
7.26474e-06
5.3955e-05
9.4351e-06
5.51742e-05
1.10157e-05
5.61279e-05
1.20316e-05
5.67591e-05
1.25534e-05
5.70629e-05
1.26709e-05
5.70678e-05
1.24742e-05
5.68199e-05
1.20429e-05
5.63718e-05
1.14421e-05
5.57755e-05
1.07223e-05
5.50789e-05
9.92097e-06
5.43242e-05
9.06572e-06
5.35473e-05
8.17783e-06
5.27781e-05
7.27666e-06
5.20405e-05
6.38577e-06
5.13514e-05
5.54166e-06
5.07181e-05
4.80974e-06
4.32018e-06
5.02629e-05
1.26149e-06
5.09998e-05
3.8259e-06
5.20608e-05
6.20373e-06
5.32628e-05
8.23317e-06
5.44417e-05
9.83685e-06
5.54756e-05
1.09976e-05
5.62896e-05
1.17395e-05
5.68499e-05
1.21106e-05
5.71547e-05
1.21694e-05
5.72231e-05
1.19744e-05
5.70869e-05
1.15783e-05
5.67833e-05
1.10259e-05
5.63506e-05
1.03537e-05
5.58256e-05
9.59073e-06
5.52418e-05
8.7616e-06
5.46287e-05
7.88973e-06
5.40112e-05
7.0033e-06
5.34084e-05
6.14446e-06
5.28317e-05
5.38641e-06
4.87265e-06
5.01973e-05
1.06414e-06
5.07714e-05
3.25187e-06
5.16352e-05
5.33992e-06
5.26667e-05
7.20163e-06
5.3743e-05
8.76062e-06
5.47597e-05
9.98087e-06
5.56409e-05
1.08583e-05
5.63396e-05
1.14119e-05
5.68349e-05
1.16741e-05
5.71264e-05
1.1683e-05
5.72274e-05
1.14773e-05
5.71605e-05
1.10928e-05
5.69528e-05
1.05613e-05
5.66332e-05
9.91037e-06
5.62298e-05
9.16501e-06
5.57689e-05
8.35065e-06
5.52737e-05
7.4985e-06
5.47634e-05
6.65471e-06
5.4252e-05
5.89785e-06
5.37943e-06
5.0151e-05
9.13176e-07
5.06014e-05
2.80146e-06
5.13012e-05
4.64011e-06
5.217e-05
6.3328e-06
5.31184e-05
7.81226e-06
5.40626e-05
9.03663e-06
5.4934e-05
9.98694e-06
5.56829e-05
1.0663e-05
5.62791e-05
1.10779e-05
5.6709e-05
1.1253e-05
5.6973e-05
1.12133e-05
5.7081e-05
1.09848e-05
5.70495e-05
1.05928e-05
5.68988e-05
1.00611e-05
5.66503e-05
9.41346e-06
5.63256e-05
8.6754e-06
5.59445e-05
7.87958e-06
5.55247e-05
7.07449e-06
5.5081e-05
6.3416e-06
5.83536e-06
5.01173e-05
7.95901e-07
5.04736e-05
2.44515e-06
5.10401e-05
4.07355e-06
5.17639e-05
5.60906e-06
5.25806e-05
6.99554e-06
5.34254e-05
8.19186e-06
5.42401e-05
9.17216e-06
5.49784e-05
9.92471e-06
5.56071e-05
1.04493e-05
5.61061e-05
1.0754e-05
5.6467e-05
1.08524e-05
5.66907e-05
1.07611e-05
5.67849e-05
1.04986e-05
5.67618e-05
1.00842e-05
5.66364e-05
9.53879e-06
5.64249e-05
8.88698e-06
5.61429e-05
8.16156e-06
5.58055e-05
7.41183e-06
5.54272e-05
6.71995e-06
6.23885e-06
5.00925e-05
7.03378e-07
5.03773e-05
2.16036e-06
5.08374e-05
3.61346e-06
5.14369e-05
5.00953e-06
5.21297e-05
6.30283e-06
5.2866e-05
7.45552e-06
5.35988e-05
8.43932e-06
5.42876e-05
9.23594e-06
5.49006e-05
9.83632e-06
5.54156e-05
1.0239e-05
5.58196e-05
1.04484e-05
5.61075e-05
1.04732e-05
5.62806e-05
1.03255e-05
5.6345e-05
1.00199e-05
5.63097e-05
9.57408e-06
5.61856e-05
9.01103e-06
5.59844e-05
8.36273e-06
5.57181e-05
7.67814e-06
5.53998e-05
7.03827e-06
6.59102e-06
5.00746e-05
6.28794e-07
5.03059e-05
1.92908e-06
5.06825e-05
3.23679e-06
5.11789e-05
4.51318e-06
5.17608e-05
5.72091e-06
5.23906e-05
6.82578e-06
5.30308e-05
7.79904e-06
5.36479e-05
8.61885e-06
5.42138e-05
9.27045e-06
5.47071e-05
9.74569e-06
5.51133e-05
1.00422e-05
5.54242e-05
1.01623e-05
5.5637e-05
1.01127e-05
5.57533e-05
9.90362e-06
5.57775e-05
9.54987e-06
5.57162e-05
9.07229e-06
5.55772e-05
8.5017e-06
5.53695e-05
7.88589e-06
5.51043e-05
7.30343e-06
6.89476e-06
5.00624e-05
5.66355e-07
5.02554e-05
1.73608e-06
5.05688e-05
2.92344e-06
5.09819e-05
4.10008e-06
5.14685e-05
5.23435e-06
5.19996e-05
6.29464e-06
5.25463e-05
7.2523e-06
5.30818e-05
8.08342e-06
5.35826e-05
8.76964e-06
5.403e-05
9.29829e-06
5.44101e-05
9.66207e-06
5.47137e-05
9.85867e-06
5.4936e-05
9.89035e-06
5.50757e-05
9.76399e-06
5.51339e-05
9.4916e-06
5.51141e-05
9.09216e-06
5.50206e-05
8.59512e-06
5.48598e-05
8.04674e-06
5.46408e-05
7.52244e-06
7.15394e-06
5.00561e-05
5.10285e-07
5.02247e-05
1.56742e-06
5.04926e-05
2.65558e-06
5.08407e-05
3.75201e-06
5.12477e-05
4.8273e-06
5.16916e-05
5.85079e-06
5.21502e-05
6.79366e-06
5.2603e-05
7.63064e-06
5.30316e-05
8.34108e-06
5.34205e-05
8.90932e-06
5.37579e-05
9.32473e-06
5.40349e-05
9.58161e-06
5.42462e-05
9.67912e-06
5.43887e-05
9.62139e-06
5.4462e-05
9.41831e-06
5.4467e-05
9.08724e-06
5.44057e-05
8.65636e-06
5.42821e-05
8.17039e-06
5.41029e-05
7.70157e-06
7.37274e-06
5.00573e-05
4.5301e-07
5.02148e-05
1.40992e-06
5.04525e-05
2.4179e-06
5.07514e-05
3.45303e-06
5.10943e-05
4.48445e-06
5.14642e-05
5.48086e-06
5.1845e-05
6.41284e-06
5.22215e-05
7.25416e-06
5.25799e-05
7.98271e-06
5.29083e-05
8.58094e-06
5.31969e-05
9.03604e-06
5.34385e-05
9.34005e-06
5.36277e-05
9.48994e-06
5.37612e-05
9.48788e-06
5.38374e-05
9.34214e-06
5.38558e-05
9.06882e-06
5.38172e-05
8.69501e-06
5.37236e-05
8.264e-06
5.35793e-05
7.84585e-06
7.55489e-06
5.00693e-05
3.83666e-07
5.02265e-05
1.25279e-06
5.04455e-05
2.19888e-06
5.07088e-05
3.18969e-06
5.10027e-05
4.19057e-06
5.13148e-05
5.16879e-06
5.16334e-05
6.09425e-06
5.19474e-05
6.94009e-06
5.22469e-05
7.68328e-06
5.25227e-05
8.30508e-06
5.27675e-05
8.79132e-06
5.29749e-05
9.13257e-06
5.31406e-05
9.3243e-06
5.32611e-05
9.36733e-06
5.33346e-05
9.26866e-06
5.33601e-05
9.04335e-06
5.33375e-05
8.71758e-06
5.32687e-05
8.33275e-06
5.31578e-05
7.95682e-06
7.70678e-06
5.00844e-05
5.02476e-05
5.04564e-05
5.06983e-05
5.09628e-05
5.12403e-05
5.15216e-05
5.1798e-05
5.20615e-05
5.2305e-05
5.25221e-05
5.27077e-05
5.28577e-05
5.29691e-05
5.30397e-05
5.30687e-05
5.30566e-05
5.30041e-05
5.29136e-05
)
;

boundaryField
{
    movingWall
    {
        type            calculated;
        value           nonuniform List<scalar> 
20
(
2.99286e-07
1.08954e-06
1.99014e-06
2.94781e-06
3.92604e-06
4.89129e-06
5.81296e-06
6.66367e-06
7.41975e-06
8.06163e-06
8.57419e-06
8.94694e-06
9.17429e-06
9.25599e-06
9.19802e-06
9.01434e-06
8.72973e-06
8.38519e-06
8.04737e-06
7.82418e-06
)
;
    }
    bottomWall
    {
        type            calculated;
        value           uniform 0;
    }
    leftSide
    {
        type            calculated;
        value           nonuniform List<scalar> 
20
(
-5e-05
-5e-05
-5e-05
-5e-05
-5e-05
-5e-05
-5e-05
-5e-05
-5e-05
-5e-05
-5e-05
-5e-05
-5e-05
-5e-05
-5e-05
-5e-05
-5e-05
-5e-05
-5e-05
-5e-05
)
;
    }
    rightSide
    {
        type            calculated;
        value           nonuniform List<scalar> 
20
(
4.20277e-06
1.23658e-05
2.00492e-05
2.70929e-05
3.33869e-05
3.88569e-05
4.34655e-05
4.7212e-05
5.01293e-05
5.22792e-05
5.37452e-05
5.4625e-05
5.50237e-05
5.50476e-05
5.48006e-05
5.43816e-05
5.38841e-05
5.33971e-05
5.30059e-05
5.27962e-05
)
;
    }
    frontAndBack
    {
        type            empty;
        value           nonuniform List<scalar> 0();
    }
}


// ************************************************************************* //
