/*--------------------------------*- C++ -*----------------------------------*\
| =========                 |                                                 |
| \\      /  F ield         | OpenFOAM: The Open Source CFD Toolbox           |
|  \\    /   O peration     | Version:  v2012                                 |
|   \\  /    A nd           | Website:  www.openfoam.com                      |
|    \\/     M anipulation  |                                                 |
\*---------------------------------------------------------------------------*/
FoamFile
{
    version     2.0;
    format      ascii;
    class       volVectorField;
    location    "0.4";
    object      U;
}
// * * * * * * * * * * * * * * * * * * * * * * * * * * * * * * * * * * * * * //

dimensions      [0 1 -1 0 0 0 0];


internalField   nonuniform List<vector> 
400
(
(0.725865 0.132329 0)
(0.621606 0.125312 0)
(0.461197 0.076894 0)
(0.340569 0.0440989 0)
(0.268218 0.025672 0)
(0.222375 0.0155941 0)
(0.190849 0.0100591 0)
(0.168081 0.00692171 0)
(0.150975 0.00504078 0)
(0.137676 0.00383443 0)
(0.127069 0.0030071 0)
(0.118463 0.00240452 0)
(0.111408 0.0019426 0)
(0.105597 0.00157404 0)
(0.10081 0.00127362 0)
(0.0968753 0.00103278 0)
(0.0936402 0.000862287 0)
(0.0908649 0.000806218 0)
(0.0880313 0.000921794 0)
(0.0852769 0.00110008 0)
(0.994946 0.25173 0)
(0.998021 0.288321 0)
(0.894458 0.215242 0)
(0.770595 0.148674 0)
(0.666361 0.102147 0)
(0.583441 0.0714761 0)
(0.517741 0.0516013 0)
(0.465626 0.0385686 0)
(0.423935 0.0297466 0)
(0.390158 0.0235321 0)
(0.36246 0.0189726 0)
(0.339531 0.0154957 0)
(0.320432 0.0127505 0)
(0.304477 0.0105196 0)
(0.291152 0.00867469 0)
(0.28005 0.00715664 0)
(0.270831 0.00597499 0)
(0.263059 0.0052263 0)
(0.255898 0.00503263 0)
(0.249818 0.00516552 0)
(1.02785 0.202011 0)
(1.07524 0.311722 0)
(1.05521 0.293874 0)
(0.991494 0.24413 0)
(0.913876 0.193565 0)
(0.837064 0.151202 0)
(0.767059 0.118453 0)
(0.705808 0.0938694 0)
(0.653212 0.0754378 0)
(0.608355 0.0614394 0)
(0.570153 0.0505951 0)
(0.537607 0.0419985 0)
(0.509879 0.035021 0)
(0.486284 0.029236 0)
(0.466269 0.0243703 0)
(0.449379 0.020279 0)
(0.435245 0.0169388 0)
(0.423408 0.0144514 0)
(0.412898 0.0129637 0)
(0.404399 0.0123355 0)
(1.02212 0.140304 0)
(1.07373 0.275629 0)
(1.09821 0.308919 0)
(1.08522 0.29271 0)
(1.04627 0.257386 0)
(0.994437 0.21837 0)
(0.938514 0.182532 0)
(0.883616 0.152037 0)
(0.832353 0.126899 0)
(0.785804 0.106374 0)
(0.744221 0.0895656 0)
(0.707454 0.0756607 0)
(0.67519 0.0639971 0)
(0.647068 0.0540719 0)
(0.622737 0.0455349 0)
(0.601875 0.0381834 0)
(0.584217 0.0319667 0)
(0.569382 0.0269927 0)
(0.556373 0.0234794 0)
(0.546055 0.0215692 0)
(1.0139 0.0987322 0)
(1.05636 0.228166 0)
(1.09608 0.288313 0)
(1.11278 0.300945 0)
(1.10537 0.286843 0)
(1.08058 0.260365 0)
(1.04527 0.230106 0)
(1.00475 0.20053 0)
(0.962735 0.173572 0)
(0.92155 0.149799 0)
(0.882559 0.129119 0)
(0.846483 0.111171 0)
(0.813656 0.0955252 0)
(0.784185 0.0817869 0)
(0.758057 0.0696464 0)
(0.735198 0.058915 0)
(0.715536 0.0495568 0)
(0.698835 0.041723 0)
(0.684153 0.0357699 0)
(0.672572 0.0322553 0)
(1.00827 0.0718959 0)
(1.04002 0.184789 0)
(1.08038 0.254215 0)
(1.11032 0.28569 0)
(1.12302 0.29047 0)
(1.11972 0.27887 0)
(1.10405 0.258585 0)
(1.07986 0.234678 0)
(1.05055 0.210143 0)
(1.01875 0.186559 0)
(0.986352 0.16463 0)
(0.954657 0.14456 0)
(0.924515 0.126292 0)
(0.89647 0.109669 0)
(0.87086 0.0945228 0)
(0.84789 0.0807558 0)
(0.827713 0.0684019 0)
(0.810269 0.0577028 0)
(0.794737 0.0492081 0)
(0.782457 0.0439642 0)
(1.00498 0.0541299 0)
(1.02804 0.149206 0)
(1.06344 0.218203 0)
(1.09669 0.259547 0)
(1.11973 0.277931 0)
(1.13066 0.279552 0)
(1.13031 0.270114 0)
(1.1207 0.254109 0)
(1.10422 0.234716 0)
(1.0831 0.214002 0)
(1.05924 0.193205 0)
(1.03411 0.173001 0)
(1.00885 0.153706 0)
(0.98429 0.135437 0)
(0.961039 0.118225 0)
(0.939544 0.102112 0)
(0.920158 0.0872453 0)
(0.902994 0.0739976 0)
(0.887386 0.0631427 0)
(0.874964 0.0562357 0)
(1.00313 0.0420777 0)
(1.01988 0.121293 0)
(1.04906 0.185285 0)
(1.08062 0.230152 0)
(1.1074 0.256866 0)
(1.12623 0.268501 0)
(1.13623 0.268701 0)
(1.13786 0.260872 0)
(1.13238 0.247802 0)
(1.12133 0.231573 0)
(1.10623 0.213639 0)
(1.08847 0.194956 0)
(1.06918 0.17612 0)
(1.04933 0.157484 0)
(1.02967 0.139276 0)
(1.01079 0.121692 0)
(0.993209 0.105016 0)
(0.977158 0.0897695 0)
(0.962141 0.0769572 0)
(0.950085 0.0686149 0)
(1.00206 0.0336488 0)
(1.0144 0.0997269 0)
(1.03781 0.15709 0)
(1.06564 0.201629 0)
(1.0923 0.232531 0)
(1.11449 0.250863 0)
(1.13049 0.258611 0)
(1.13978 0.258045 0)
(1.14268 0.251301 0)
(1.14 0.24018 0)
(1.13278 0.226087 0)
(1.12209 0.210063 0)
(1.10894 0.192848 0)
(1.09423 0.174958 0)
(1.07875 0.156771 0)
(1.06316 0.138623 0)
(1.04802 0.120931 0)
(1.03368 0.104362 0)
(1.01977 0.0901358 0)
(1.0085 0.0807012 0)
(1.00143 0.0275615 0)
(1.01066 0.0830757 0)
(1.02924 0.133701 0)
(1.05288 0.175879 0)
(1.07746 0.20813 0)
(1.10008 0.230387 0)
(1.11883 0.243488 0)
(1.13267 0.248748 0)
(1.14127 0.247624 0)
(1.14488 0.2415 0)
(1.14403 0.231572 0)
(1.13944 0.218813 0)
(1.13189 0.203985 0)
(1.12214 0.187675 0)
(1.11089 0.170354 0)
(1.09879 0.152462 0)
(1.08641 0.134525 0)
(1.0741 0.117337 0)
(1.06163 0.102297 0)
(1.05145 0.0921731 0)
(1.00103 0.0230433 0)
(1.00804 0.0701533 0)
(1.02277 0.114599 0)
(1.04243 0.153539 0)
(1.06412 0.185386 0)
(1.08551 0.209524 0)
(1.1048 0.226075 0)
(1.12077 0.235651 0)
(1.13276 0.239125 0)
(1.1406 0.23745 0)
(1.14443 0.231541 0)
(1.14465 0.222212 0)
(1.14177 0.210157 0)
(1.13635 0.195958 0)
(1.12898 0.180121 0)
(1.12022 0.163145 0)
(1.11058 0.145632 0)
(1.1004 0.128474 0)
(1.08953 0.113202 0)
(1.08065 0.102799 0)
(1.00077 0.0196172 0)
(1.00617 0.0600534 0)
(1.01786 0.0991093 0)
(1.03404 0.134603 0)
(1.05268 0.165082 0)
(1.07199 0.189727 0)
(1.09045 0.208257 0)
(1.10686 0.220813 0)
(1.12042 0.22782 0)
(1.13071 0.229851 0)
(1.13763 0.227536 0)
(1.14128 0.221491 0)
(1.14195 0.212291 0)
(1.14003 0.200459 0)
(1.13592 0.186488 0)
(1.13009 0.170896 0)
(1.12297 0.15433 0)
(1.11482 0.137743 0)
(1.10557 0.122749 0)
(1.09805 0.112436 0)
(1.00058 0.0169751 0)
(1.00481 0.0520977 0)
(1.01413 0.0865778 0)
(1.02738 0.118772 0)
(1.04312 0.147449 0)
(1.06005 0.17176 0)
(1.07691 0.191228 0)
(1.09265 0.205703 0)
(1.10645 0.215289 0)
(1.1178 0.220259 0)
(1.12642 0.220987 0)
(1.13225 0.217894 0)
(1.13537 0.211416 0)
(1.13602 0.201987 0)
(1.13445 0.190056 0)
(1.13101 0.17613 0)
(1.12602 0.16087 0)
(1.11969 0.145259 0)
(1.11196 0.130944 0)
(1.10579 0.121023 0)
(1.00045 0.0149071 0)
(1.0038 0.0457745 0)
(1.01129 0.0764261 0)
(1.02213 0.105641 0)
(1.03531 0.13241 0)
(1.04984 0.155939 0)
(1.06476 0.175672 0)
(1.07916 0.19129 0)
(1.09231 0.202681 0)
(1.10368 0.209897 0)
(1.11292 0.213103 0)
(1.11985 0.212546 0)
(1.12444 0.208526 0)
(1.12678 0.20138 0)
(1.12702 0.191498 0)
(1.12537 0.179355 0)
(1.12208 0.165603 0)
(1.11727 0.151229 0)
(1.11091 0.137873 0)
(1.10601 0.128561 0)
(1.00036 0.0132599 0)
(1.00306 0.0406852 0)
(1.00917 0.0681567 0)
(1.01808 0.0947791 0)
(1.02905 0.119734 0)
(1.04135 0.142305 0)
(1.05423 0.161916 0)
(1.06697 0.178156 0)
(1.07892 0.190774 0)
(1.08961 0.199662 0)
(1.09866 0.204829 0)
(1.10586 0.206379 0)
(1.1111 0.204491 0)
(1.11438 0.199412 0)
(1.11575 0.191465 0)
(1.11535 0.181088 0)
(1.11333 0.168911 0)
(1.10972 0.155904 0)
(1.10453 0.143668 0)
(1.1008 0.135097 0)
(1.0003 0.0119122 0)
(1.00256 0.0365066 0)
(1.00765 0.061344 0)
(1.01505 0.0857753 0)
(1.02419 0.109126 0)
(1.03452 0.130745 0)
(1.04544 0.150059 0)
(1.05639 0.166606 0)
(1.06686 0.180048 0)
(1.07643 0.190167 0)
(1.08476 0.196856 0)
(1.09163 0.200111 0)
(1.09691 0.200013 0)
(1.10053 0.19673 0)
(1.1025 0.190528 0)
(1.10286 0.181803 0)
(1.10172 0.171158 0)
(1.09904 0.159535 0)
(1.09485 0.148474 0)
(1.09215 0.140701 0)
(1.00028 0.0107578 0)
(1.00229 0.0329691 0)
(1.00668 0.055636 0)
(1.01297 0.078276 0)
(1.02063 0.100298 0)
(1.02925 0.12109 0)
(1.03838 0.140078 0)
(1.0476 0.156771 0)
(1.0565 0.170774 0)
(1.06475 0.181796 0)
(1.07206 0.189652 0)
(1.07825 0.194255 0)
(1.08315 0.195616 0)
(1.0867 0.193839 0)
(1.08885 0.189141 0)
(1.08963 0.181884 0)
(1.08907 0.172643 0)
(1.08709 0.162328 0)
(1.08372 0.152414 0)
(1.08195 0.14544 0)
(1.00032 0.009648 0)
(1.00228 0.0297674 0)
(1.00628 0.0506633 0)
(1.01176 0.0719014 0)
(1.01827 0.0929014 0)
(1.02548 0.113053 0)
(1.03307 0.131776 0)
(1.04071 0.148556 0)
(1.04813 0.162961 0)
(1.05505 0.174656 0)
(1.06127 0.183402 0)
(1.06661 0.189057 0)
(1.07094 0.19158 0)
(1.07417 0.19103 0)
(1.07628 0.187587 0)
(1.07723 0.181584 0)
(1.07703 0.173573 0)
(1.07558 0.164433 0)
(1.07292 0.155582 0)
(1.07197 0.149411 0)
(1.00045 0.00827329 0)
(1.00259 0.0263681 0)
(1.00641 0.0457791 0)
(1.01134 0.0659289 0)
(1.01698 0.0861709 0)
(1.0231 0.105867 0)
(1.02947 0.12442 0)
(1.03585 0.141298 0)
(1.04204 0.156047 0)
(1.04783 0.1683 0)
(1.05307 0.177782 0)
(1.05763 0.184317 0)
(1.06138 0.187823 0)
(1.06425 0.188328 0)
(1.0662 0.185981 0)
(1.0672 0.181093 0)
(1.06724 0.174192 0)
(1.06618 0.166127 0)
(1.06417 0.158276 0)
(1.06395 0.15297 0)
(1.00062 0.00668799 0)
(1.00301 0.022997 0)
(1.00677 0.0412469 0)
(1.01138 0.0605998 0)
(1.01651 0.0803165 0)
(1.02197 0.0997236 0)
(1.02761 0.118208 0)
(1.03323 0.135225 0)
(1.03868 0.150301 0)
(1.04378 0.16305 0)
(1.04842 0.173173 0)
(1.05247 0.180464 0)
(1.05585 0.184818 0)
(1.05848 0.186234 0)
(1.0603 0.184838 0)
(1.06131 0.180916 0)
(1.06147 0.174975 0)
(1.06068 0.167835 0)
(1.05921 0.160834 0)
(1.05952 0.156149 0)
)
;

boundaryField
{
    movingWall
    {
        type            zeroGradient;
    }
    bottomWall
    {
        type            noSlip;
    }
    leftSide
    {
        type            fixedValue;
        value           uniform (1 0 0);
    }
    rightSide
    {
        type            zeroGradient;
    }
    frontAndBack
    {
        type            empty;
    }
}


// ************************************************************************* //
